;----------------------------TITLE -----------------------------------------------------------------------------------------
;   None
;
; This file was generated at 11:21 on 2017-08-31 by
;
;                  Automatic Topology Builder  
;
;                   REVISION 2017-07-03 14:53:07
;---------------------------------------------------------------------------------------------------------------------------
; Authors     : Alpeshkumar K. Malde, Le Zuo, Matthew Breeze, Martin Stroet, Alan E. Mark
;
; Institute   : Molecular Dynamics group, 
;               School of Chemistry and Molecular Biosciences (SCMB),
;               The University of Queensland, QLD 4072, Australia
; URL         : http://compbio.biosci.uq.edu.au/atb
; Citation    : Malde AK, Zuo L, Breeze M, Stroet M, Poger D, Nair PC, Oostenbrink C, Mark AE.
;               An Automated force field Topology Builder (ATB) and repository: version 1.0.
;               Journal of Chemical Theory and Computation, 2011, 7(12), 4026-4037.
;               http://pubs.acs.org/doi/abs/10.1021/ct200196m
;
; Disclaimer  : 
;      While every effort has been made to ensure the accuracy and validity of parameters provided below
;      the assignment of parameters is being based on an automated procedure combining data provided by a
;      given user as well as calculations performed using third party software. They are provided as a guide.
;      The authors of the ATB cannot guarantee that the parameters are complete or that the parameters provided
;      are appropriate for use in any specific application. Users are advised to treat these parameters with discretion
;      and to perform additional validation tests for their specific application if required. Neither the authors
;      of the ATB or The University of Queensland except any responsibly for how the parameters may be used.
;
; Release notes and warnings: 
;  (1) The topology is based on a set of atomic coordinates and other data provided by the user after
;      after quantum mechanical optimization of the structure using different levels of theory depending on
;      the nature of the molecule.
;  (2) In some cases the automatic bond, bond angle and dihedral type assignment is ambiguous.
;      In these cases alternative type codes are provided at the end of the line.
;  (3) While bonded parameters are taken where possible from the nominated force field non-standard bond, angle and dihedral
;      type code may be incorporated in cases where an exact match could not be found. These are marked as "non-standard"
;      or "uncertain" in comments.
;  (4) In some cases it is not possible to assign an appropriate parameter automatically. "%%" is used as a place holder
;      for those fields that could not be determined automatically. The parameters in these fields must be assigned manually
;      before the file can be used.
;---------------------------------------------------------------------------------------------------------------------------
; Input Structure : B5XE
; Output          : ALL ATOM topology
;	Use in conjunction with the corresponding all atom PDB file.
;---------------------------------------------------------------------------------------------------------------------------
; Citing this topology file
; ATB molid: 245192
; ATB Topology Hash: c2d6b
;---------------------------------------------------------------------------------------------------------------------------
; Initial Guess Topology Generation:
; The topology was generated from AM1 optimized geometry and MOPAC charges.
; Bonded and van der Waals parameters were taken from the GROMOS 53A6 parameter set.
;---------------------------------------------------------------------------------------------------------------------------
;
;
[ moleculetype ]
; Name   nrexcl
B5XE     3
[ atoms ]
;  nr  type  resnr  resid  atom  cgnr  charge    mass    total_charge
    1    HC    1    B5XE     H9    1    0.110   1.0080
    2     C    1    B5XE     C8    1   -0.240  12.0110
    3    HC    1    B5XE     H7    1    0.110   1.0080
    4    HC    1    B5XE     H8    1    0.110   1.0080
    5     C    1    B5XE     C7    1    0.290  12.0110
    6     O    1    B5XE     O6    1   -0.380  15.9994     ;  0.000
    7     N    1    B5XE     N1    2   -0.379  14.0067
    8     H    1    B5XE    H13    2    0.268   1.0080
    9     C    1    B5XE     C2    2   -0.018  12.0110
   10    HC    1    B5XE     H1    2    0.143   1.0080
   11     C    1    B5XE     C1    2    0.144  12.0110
   12    HC    1    B5XE    H14    2    0.110   1.0080
   13    OE    1    B5XE     O1    2   -0.268  15.9994     ;  0.000
   14    OE    1    B5XE     O4    3   -0.316  15.9994
   15     C    1    B5XE     C5    3    0.005  12.0110
   16    HC    1    B5XE     H4    3    0.101   1.0080
   17     C    1    B5XE     C6    3   -0.011  12.0110
   18    HC    1    B5XE     H5    3    0.077   1.0080
   19    HC    1    B5XE     H6    3    0.133   1.0080
   20    OA    1    B5XE     O5    3   -0.320  15.9994
   21     H    1    B5XE    H12    3    0.331   1.0080     ;  0.000
   22     C    1    B5XE     C4    4   -0.023  12.0110
   23    HC    1    B5XE     H3    4    0.108   1.0080
   24    OA    1    B5XE     O3    4   -0.323  15.9994
   25     H    1    B5XE    H11    4    0.225   1.0080
   26     C    1    B5XE     C3    4   -0.025  12.0110
   27    HC    1    B5XE     H2    4    0.123   1.0080
   28    OA    1    B5XE     O2    4   -0.327  15.9994
   29     H    1    B5XE    H10    4    0.242   1.0080     ; -0.000
   30     C    1    B5XE    C12    5   -0.029  12.0110
   31    HC    1    B5XE    H17    5    0.137   1.0080
   32     C    1    B5XE    C13    5   -0.014  12.0110
   33    HC    1    B5XE    H18    5    0.104   1.0080
   34    OE    1    B5XE     O9    5   -0.320  15.9994
   35     C    1    B5XE    C14    5   -0.015  12.0110
   36    HC    1    B5XE    H19    5    0.094   1.0080
   37    HC    1    B5XE    H20    5    0.105   1.0080
   38    OA    1    B5XE    O10    5   -0.332  15.9994
   39     H    1    B5XE    H25    5    0.270   1.0080     ;  0.000
   40     C    1    B5XE    C11    6    0.009  12.0110
   41    HC    1    B5XE    H16    6    0.087   1.0080
   42    OA    1    B5XE     O8    6   -0.323  15.9994
   43     H    1    B5XE    H24    6    0.227   1.0080     ; -0.000
   44     C    1    B5XE    C10    7    0.012  12.0110
   45    HC    1    B5XE    H15    7    0.162   1.0080
   46     N    1    B5XE     N2    7   -0.370  14.0067
   47     H    1    B5XE    H26    7    0.203   1.0080
   48     C    1    B5XE     C9    7    0.133  12.0110
   49    HC    1    B5XE    H27    7    0.110   1.0080
   50    OE    1    B5XE     O7    7   -0.250  15.9994     ;  0.000
   51     C    1    B5XE    C20    8   -0.031  12.0110
   52    HC    1    B5XE    H30    8    0.131   1.0080
   53     C    1    B5XE    C21    8   -0.014  12.0110
   54    HC    1    B5XE    H31    8    0.109   1.0080
   55    OE    1    B5XE    O14    8   -0.322  15.9994
   56     C    1    B5XE    C22    8   -0.019  12.0110
   57    HC    1    B5XE    H32    8    0.092   1.0080
   58    HC    1    B5XE    H33    8    0.117   1.0080
   59    OA    1    B5XE    O15    8   -0.334  15.9994
   60     H    1    B5XE    H38    8    0.271   1.0080     ;  0.000
   61     C    1    B5XE    C19    9    0.010  12.0110
   62    HC    1    B5XE    H29    9    0.092   1.0080
   63    OA    1    B5XE    O13    9   -0.324  15.9994
   64     H    1    B5XE    H37    9    0.222   1.0080     ; -0.000
   65     C    1    B5XE    C18   10    0.011  12.0110
   66    HC    1    B5XE    H28   10    0.161   1.0080
   67     N    1    B5XE     N3   10   -0.369  14.0067
   68     H    1    B5XE    H39   10    0.204   1.0080
   69     C    1    B5XE    C17   10    0.133  12.0110
   70    HC    1    B5XE    H40   10    0.111   1.0080
   71    OE    1    B5XE    O12   10   -0.251  15.9994     ;  0.000
   72     C    1    B5XE    C28   11   -0.031  12.0110
   73    HC    1    B5XE    H43   11    0.132   1.0080
   74     C    1    B5XE    C29   11   -0.014  12.0110
   75    HC    1    B5XE    H44   11    0.108   1.0080
   76    OE    1    B5XE    O19   11   -0.322  15.9994
   77     C    1    B5XE    C30   11   -0.019  12.0110
   78    HC    1    B5XE    H45   11    0.091   1.0080
   79    HC    1    B5XE    H46   11    0.117   1.0080
   80    OA    1    B5XE    O20   11   -0.333  15.9994
   81     H    1    B5XE    H51   11    0.271   1.0080     ;  0.000
   82     C    1    B5XE    C27   12    0.010  12.0110
   83    HC    1    B5XE    H42   12    0.091   1.0080
   84    OA    1    B5XE    O18   12   -0.325  15.9994
   85     H    1    B5XE    H50   12    0.224   1.0080     ; -0.000
   86     C    1    B5XE    C26   13    0.011  12.0110
   87    HC    1    B5XE    H41   13    0.161   1.0080
   88     N    1    B5XE     N4   13   -0.369  14.0067
   89     H    1    B5XE    H52   13    0.204   1.0080
   90     C    1    B5XE    C25   13    0.134  12.0110
   91    HC    1    B5XE    H53   13    0.110   1.0080
   92    OE    1    B5XE    O17   13   -0.251  15.9994     ;  0.000
   93     C    1    B5XE    C36   14   -0.031  12.0110
   94    HC    1    B5XE    H56   14    0.132   1.0080
   95     C    1    B5XE    C37   14   -0.013  12.0110
   96    HC    1    B5XE    H57   14    0.108   1.0080
   97    OE    1    B5XE    O24   14   -0.323  15.9994
   98     C    1    B5XE    C38   14   -0.019  12.0110
   99    HC    1    B5XE    H58   14    0.091   1.0080
  100    HC    1    B5XE    H59   14    0.117   1.0080
  101    OA    1    B5XE    O25   14   -0.333  15.9994
  102     H    1    B5XE    H64   14    0.271   1.0080     ;  0.000
  103     C    1    B5XE    C35   15    0.010  12.0110
  104    HC    1    B5XE    H55   15    0.092   1.0080
  105    OA    1    B5XE    O23   15   -0.325  15.9994
  106     H    1    B5XE    H63   15    0.223   1.0080     ; -0.000
  107     C    1    B5XE    C34   16    0.011  12.0110
  108    HC    1    B5XE    H54   16    0.161   1.0080
  109     N    1    B5XE     N5   16   -0.368  14.0067
  110     H    1    B5XE    H65   16    0.203   1.0080
  111     C    1    B5XE    C33   16    0.134  12.0110
  112    HC    1    B5XE    H66   16    0.110   1.0080
  113    OE    1    B5XE    O22   16   -0.251  15.9994     ;  0.000
  114     C    1    B5XE    C44   17   -0.031  12.0110
  115    HC    1    B5XE    H69   17    0.132   1.0080
  116     C    1    B5XE    C45   17   -0.014  12.0110
  117    HC    1    B5XE    H70   17    0.108   1.0080
  118    OE    1    B5XE    O29   17   -0.323  15.9994
  119     C    1    B5XE    C46   17   -0.019  12.0110
  120    HC    1    B5XE    H71   17    0.091   1.0080
  121    HC    1    B5XE    H72   17    0.117   1.0080
  122    OA    1    B5XE    O30   17   -0.332  15.9994
  123     H    1    B5XE    H77   17    0.271   1.0080     ;  0.000
  124     C    1    B5XE    C43   18    0.010  12.0110
  125    HC    1    B5XE    H68   18    0.092   1.0080
  126    OA    1    B5XE    O28   18   -0.325  15.9994
  127     H    1    B5XE    H76   18    0.223   1.0080     ; -0.000
  128     C    1    B5XE    C42   19    0.011  12.0110
  129    HC    1    B5XE    H67   19    0.161   1.0080
  130     N    1    B5XE     N6   19   -0.368  14.0067
  131     H    1    B5XE    H78   19    0.203   1.0080
  132     C    1    B5XE    C41   19    0.134  12.0110
  133    HC    1    B5XE    H79   19    0.110   1.0080
  134    OE    1    B5XE    O27   19   -0.251  15.9994     ;  0.000
  135     C    1    B5XE    C52   20   -0.031  12.0110
  136    HC    1    B5XE    H82   20    0.132   1.0080
  137     C    1    B5XE    C53   20   -0.014  12.0110
  138    HC    1    B5XE    H83   20    0.108   1.0080
  139    OE    1    B5XE    O34   20   -0.323  15.9994
  140     C    1    B5XE    C54   20   -0.019  12.0110
  141    HC    1    B5XE    H84   20    0.091   1.0080
  142    HC    1    B5XE    H85   20    0.117   1.0080
  143    OA    1    B5XE    O35   20   -0.332  15.9994
  144     H    1    B5XE    H90   20    0.271   1.0080     ;  0.000
  145     C    1    B5XE    C51   21    0.010  12.0110
  146    HC    1    B5XE    H81   21    0.091   1.0080
  147    OA    1    B5XE    O33   21   -0.325  15.9994
  148     H    1    B5XE    H89   21    0.224   1.0080     ; -0.000
  149     C    1    B5XE    C50   22    0.011  12.0110
  150    HC    1    B5XE    H80   22    0.161   1.0080
  151     N    1    B5XE     N7   22   -0.368  14.0067
  152     H    1    B5XE    H91   22    0.203   1.0080
  153     C    1    B5XE    C49   22    0.134  12.0110
  154    HC    1    B5XE    H92   22    0.110   1.0080
  155    OE    1    B5XE    O32   22   -0.251  15.9994     ;  0.000
  156     C    1    B5XE    C60   23   -0.031  12.0110
  157    HC    1    B5XE    H95   23    0.132   1.0080
  158     C    1    B5XE    C61   23   -0.014  12.0110
  159    HC    1    B5XE    H96   23    0.108   1.0080
  160    OE    1    B5XE    O39   23   -0.323  15.9994
  161     C    1    B5XE    C62   23   -0.019  12.0110
  162    HC    1    B5XE    H97   23    0.091   1.0080
  163    HC    1    B5XE    H98   23    0.117   1.0080
  164    OA    1    B5XE    O40   23   -0.332  15.9994
  165     H    1    B5XE   H103   23    0.271   1.0080     ;  0.000
  166     C    1    B5XE    C59   24    0.010  12.0110
  167    HC    1    B5XE    H94   24    0.092   1.0080
  168    OA    1    B5XE    O38   24   -0.325  15.9994
  169     H    1    B5XE   H102   24    0.223   1.0080     ; -0.000
  170     C    1    B5XE    C58   25    0.011  12.0110
  171    HC    1    B5XE    H93   25    0.161   1.0080
  172     N    1    B5XE     N8   25   -0.368  14.0067
  173     H    1    B5XE   H104   25    0.203   1.0080
  174     C    1    B5XE    C57   25    0.134  12.0110
  175    HC    1    B5XE   H105   25    0.110   1.0080
  176    OE    1    B5XE    O37   25   -0.251  15.9994     ;  0.000
  177     C    1    B5XE    C68   26   -0.031  12.0110
  178    HC    1    B5XE   H108   26    0.132   1.0080
  179     C    1    B5XE    C69   26   -0.014  12.0110
  180    HC    1    B5XE   H109   26    0.108   1.0080
  181    OE    1    B5XE    O44   26   -0.323  15.9994
  182     C    1    B5XE    C70   26   -0.019  12.0110
  183    HC    1    B5XE   H110   26    0.091   1.0080
  184    HC    1    B5XE   H111   26    0.117   1.0080
  185    OA    1    B5XE    O45   26   -0.332  15.9994
  186     H    1    B5XE   H116   26    0.271   1.0080     ;  0.000
  187     C    1    B5XE    C67   27    0.010  12.0110
  188    HC    1    B5XE   H107   27    0.092   1.0080
  189    OA    1    B5XE    O43   27   -0.325  15.9994
  190     H    1    B5XE   H115   27    0.223   1.0080     ; -0.000
  191     C    1    B5XE    C66   28    0.011  12.0110
  192    HC    1    B5XE   H106   28    0.161   1.0080
  193     N    1    B5XE     N9   28   -0.368  14.0067
  194     H    1    B5XE   H117   28    0.204   1.0080
  195     C    1    B5XE    C65   28    0.134  12.0110
  196    HC    1    B5XE   H118   28    0.110   1.0080
  197    OE    1    B5XE    O42   28   -0.252  15.9994     ;  0.000
  198     C    1    B5XE    C76   29   -0.031  12.0110
  199    HC    1    B5XE   H121   29    0.132   1.0080
  200     C    1    B5XE    C77   29   -0.014  12.0110
  201    HC    1    B5XE   H122   29    0.108   1.0080
  202    OE    1    B5XE    O49   29   -0.322  15.9994
  203     C    1    B5XE    C78   29   -0.019  12.0110
  204    HC    1    B5XE   H123   29    0.091   1.0080
  205    HC    1    B5XE   H124   29    0.117   1.0080
  206    OA    1    B5XE    O50   29   -0.332  15.9994
  207     H    1    B5XE   H129   29    0.270   1.0080     ;  0.000
  208     C    1    B5XE    C75   30    0.010  12.0110
  209    HC    1    B5XE   H120   30    0.091   1.0080
  210    OA    1    B5XE    O48   30   -0.325  15.9994
  211     H    1    B5XE   H128   30    0.224   1.0080     ; -0.000
  212     C    1    B5XE    C74   31    0.010  12.0110
  213    HC    1    B5XE   H119   31    0.161   1.0080
  214     N    1    B5XE    N10   31   -0.368  14.0067
  215     H    1    B5XE   H130   31    0.206   1.0080
  216     C    1    B5XE    C73   31    0.134  12.0110
  217    HC    1    B5XE   H131   31    0.109   1.0080
  218    OE    1    B5XE    O47   31   -0.252  15.9994     ;  0.000
  219     C    1    B5XE    C84   32   -0.031  12.0110
  220    HC    1    B5XE   H134   32    0.132   1.0080
  221     C    1    B5XE    C85   32   -0.014  12.0110
  222    HC    1    B5XE   H135   32    0.109   1.0080
  223    OE    1    B5XE    O54   32   -0.324  15.9994
  224     C    1    B5XE    C86   32   -0.019  12.0110
  225    HC    1    B5XE   H136   32    0.089   1.0080
  226    HC    1    B5XE   H137   32    0.118   1.0080
  227    OA    1    B5XE    O55   32   -0.332  15.9994
  228     H    1    B5XE   H142   32    0.272   1.0080     ;  0.000
  229     C    1    B5XE    C83   33    0.010  12.0110
  230    HC    1    B5XE   H133   33    0.091   1.0080
  231    OA    1    B5XE    O53   33   -0.325  15.9994
  232     H    1    B5XE   H141   33    0.224   1.0080     ; -0.000
  233     C    1    B5XE    C82   34    0.011  12.0110
  234    HC    1    B5XE   H132   34    0.161   1.0080
  235     N    1    B5XE    N11   34   -0.368  14.0067
  236     H    1    B5XE   H143   34    0.204   1.0080
  237     C    1    B5XE    C81   34    0.134  12.0110
  238    HC    1    B5XE   H144   34    0.110   1.0080
  239    OE    1    B5XE    O52   34   -0.252  15.9994     ;  0.000
  240     C    1    B5XE    C92   35   -0.032  12.0110
  241    HC    1    B5XE   H147   35    0.129   1.0080
  242     C    1    B5XE    C93   35   -0.018  12.0110
  243    HC    1    B5XE   H148   35    0.105   1.0080
  244    OE    1    B5XE    O59   35   -0.310  15.9994
  245     C    1    B5XE    C94   35   -0.017  12.0110
  246    HC    1    B5XE   H149   35    0.089   1.0080
  247    HC    1    B5XE   H150   35    0.112   1.0080
  248    OA    1    B5XE    O60   35   -0.337  15.9994
  249     H    1    B5XE   H155   35    0.279   1.0080     ;  0.000
  250     C    1    B5XE    C91   36    0.019  12.0110
  251    HC    1    B5XE   H146   36    0.097   1.0080
  252    OA    1    B5XE    O58   36   -0.333  15.9994
  253     H    1    B5XE   H154   36    0.217   1.0080     ; -0.000
  254     C    1    B5XE    C90   37   -0.026  12.0110
  255    HC    1    B5XE   H145   37    0.128   1.0080
  256     N    1    B5XE    N12   37   -0.367  14.0067
  257     H    1    B5XE   H156   37    0.265   1.0080     ;  0.000
  258     C    1    B5XE    C89   38    0.145  12.0110
  259    HC    1    B5XE   H157   38    0.119   1.0080
  260    OA    1    B5XE    O57   38   -0.299  15.9994
  261     H    1    B5XE   H158   38    0.035   1.0080     ;  0.000
  262     C    1    B5XE    C95   39    0.299  12.0110
  263     O    1    B5XE    O61   39   -0.384  15.9994
  264     C    1    B5XE    C96   39   -0.239  12.0110
  265    HC    1    B5XE   H151   39    0.108   1.0080
  266    HC    1    B5XE   H152   39    0.108   1.0080
  267    HC    1    B5XE   H153   39    0.108   1.0080     ; -0.000
  268     C    1    B5XE    C87   40    0.280  12.0110
  269     O    1    B5XE    O56   40   -0.355  15.9994
  270     C    1    B5XE    C88   40   -0.243  12.0110
  271    HC    1    B5XE   H138   40    0.106   1.0080
  272    HC    1    B5XE   H139   40    0.106   1.0080
  273    HC    1    B5XE   H140   40    0.106   1.0080     ;  0.000
  274     C    1    B5XE    C79   41    0.279  12.0110
  275     O    1    B5XE    O51   41   -0.354  15.9994
  276     C    1    B5XE    C80   41   -0.243  12.0110
  277    HC    1    B5XE   H125   41    0.106   1.0080
  278    HC    1    B5XE   H126   41    0.106   1.0080
  279    HC    1    B5XE   H127   41    0.106   1.0080     ;  0.000
  280     C    1    B5XE    C71   42    0.280  12.0110
  281     O    1    B5XE    O46   42   -0.355  15.9994
  282     C    1    B5XE    C72   42   -0.243  12.0110
  283    HC    1    B5XE   H112   42    0.106   1.0080
  284    HC    1    B5XE   H113   42    0.106   1.0080
  285    HC    1    B5XE   H114   42    0.106   1.0080     ;  0.000
  286     C    1    B5XE    C63   43    0.280  12.0110
  287     O    1    B5XE    O41   43   -0.355  15.9994
  288     C    1    B5XE    C64   43   -0.243  12.0110
  289    HC    1    B5XE    H99   43    0.106   1.0080
  290    HC    1    B5XE   H100   43    0.106   1.0080
  291    HC    1    B5XE   H101   43    0.106   1.0080     ;  0.000
  292     C    1    B5XE    C55   44    0.280  12.0110
  293     O    1    B5XE    O36   44   -0.355  15.9994
  294     C    1    B5XE    C56   44   -0.243  12.0110
  295    HC    1    B5XE    H86   44    0.106   1.0080
  296    HC    1    B5XE    H87   44    0.106   1.0080
  297    HC    1    B5XE    H88   44    0.106   1.0080     ;  0.000
  298     C    1    B5XE    C47   45    0.280  12.0110
  299     O    1    B5XE    O31   45   -0.355  15.9994
  300     C    1    B5XE    C48   45   -0.243  12.0110
  301    HC    1    B5XE    H73   45    0.106   1.0080
  302    HC    1    B5XE    H74   45    0.106   1.0080
  303    HC    1    B5XE    H75   45    0.106   1.0080     ;  0.000
  304     C    1    B5XE    C39   46    0.277  12.0110
  305     O    1    B5XE    O26   46   -0.355  15.9994
  306     C    1    B5XE    C40   46   -0.243  12.0110
  307    HC    1    B5XE    H60   46    0.107   1.0080
  308    HC    1    B5XE    H61   46    0.107   1.0080
  309    HC    1    B5XE    H62   46    0.107   1.0080     ;  0.000
  310     C    1    B5XE    C31   47    0.280  12.0110
  311     O    1    B5XE    O21   47   -0.355  15.9994
  312     C    1    B5XE    C32   47   -0.243  12.0110
  313    HC    1    B5XE    H47   47    0.106   1.0080
  314    HC    1    B5XE    H48   47    0.106   1.0080
  315    HC    1    B5XE    H49   47    0.106   1.0080     ;  0.000
  316     C    1    B5XE    C23   48    0.277  12.0110
  317     O    1    B5XE    O16   48   -0.355  15.9994
  318     C    1    B5XE    C24   48   -0.243  12.0110
  319    HC    1    B5XE    H34   48    0.107   1.0080
  320    HC    1    B5XE    H35   48    0.107   1.0080
  321    HC    1    B5XE    H36   48    0.107   1.0080     ;  0.000
  322     C    1    B5XE    C15   49    0.274  12.0110
  323     O    1    B5XE    O11   49   -0.352  15.9994
  324     C    1    B5XE    C16   49   -0.243  12.0110
  325    HC    1    B5XE    H21   49    0.107   1.0080
  326    HC    1    B5XE    H22   49    0.107   1.0080
  327    HC    1    B5XE    H23   49    0.107   1.0080     ;  0.000
; total charge of the molecule:   0.000
[ bonds ]
;  ai   aj  funct   c0         c1
    1    2    2   0.1120   3.7000e+07
    2    3    2   0.1120   3.7000e+07
    2    4    2   0.1120   3.7000e+07
    2    5    2   0.1510   3.7279e+06
    5    6    2   0.1250   1.3400e+07
    5    7    2   0.1380   1.1000e+07
    7    8    2   0.0985   8.2455e+07
    7    9    2   0.1435   6.1000e+06
    9   10    2   0.1130   7.0483e+06
    9   11    2   0.1560   3.0819e+06
    9   26    2   0.1540   4.2166e+06
   11   12    2   0.1130   7.0483e+06
   11   13    2   0.1420   3.2236e+06
   11   14    2   0.1430   8.1800e+06
   13   30    2   0.1430   8.1800e+06
   14   15    2   0.1430   8.1800e+06
   15   16    2   0.1120   3.7000e+07
   15   17    2   0.1530   7.1500e+06
   15   22    2   0.1530   7.1500e+06
   17   18    2   0.1120   3.7000e+07
   17   19    2   0.1120   3.7000e+07
   17   20    2   0.1410   6.5389e+06
   20   21    2   0.0971   7.9547e+06
   22   23    2   0.1130   7.0483e+06
   22   24    2   0.1420   3.2236e+06
   22   26    2   0.1530   7.1500e+06
   24   25    2   0.0971   7.9547e+06
   26   27    2   0.1130   7.0483e+06
   26   28    2   0.1410   6.5389e+06
   28   29    2   0.0971   7.9547e+06
   30   31    2   0.1120   3.7000e+07
   30   32    2   0.1530   7.1500e+06
   30   40    2   0.1530   7.1500e+06
   32   33    2   0.1120   3.7000e+07
   32   34    2   0.1430   8.1800e+06
   32   35    2   0.1530   7.1500e+06
   34   48    2   0.1430   8.1800e+06
   35   36    2   0.1120   3.7000e+07
   35   37    2   0.1120   3.7000e+07
   35   38    2   0.1410   6.5389e+06
   38   39    2   0.0971   7.9547e+06
   40   41    2   0.1130   7.0483e+06
   40   42    2   0.1410   6.5389e+06
   40   44    2   0.1560   3.0819e+06
   42   43    2   0.0971   7.9547e+06
   44   45    2   0.1130   7.0483e+06
   44   46    2   0.1435   6.1000e+06
   44   48    2   0.1560   3.0819e+06
   46   47    2   0.1000   1.8700e+07
   46  322    2   0.1390   8.6600e+06
   48   49    2   0.1130   7.0483e+06
   48   50    2   0.1410   6.5389e+06
   50   51    2   0.1430   8.1800e+06
   51   52    2   0.1120   3.7000e+07
   51   53    2   0.1530   7.1500e+06
   51   61    2   0.1530   7.1500e+06
   53   54    2   0.1120   3.7000e+07
   53   55    2   0.1430   8.1800e+06
   53   56    2   0.1530   7.1500e+06
   55   69    2   0.1430   8.1800e+06
   56   57    2   0.1120   3.7000e+07
   56   58    2   0.1120   3.7000e+07
   56   59    2   0.1410   6.5389e+06
   59   60    2   0.0971   7.9547e+06
   61   62    2   0.1130   7.0483e+06
   61   63    2   0.1420   3.2236e+06
   61   65    2   0.1560   3.0819e+06
   63   64    2   0.0971   7.9547e+06
   65   66    2   0.1130   7.0483e+06
   65   67    2   0.1435   6.1000e+06
   65   69    2   0.1560   3.0819e+06
   67   68    2   0.1000   1.8700e+07
   67  316    2   0.1390   8.6600e+06
   69   70    2   0.1130   7.0483e+06
   69   71    2   0.1410   6.5389e+06
   71   72    2   0.1430   8.1800e+06
   72   73    2   0.1120   3.7000e+07
   72   74    2   0.1530   7.1500e+06
   72   82    2   0.1530   7.1500e+06
   74   75    2   0.1120   3.7000e+07
   74   76    2   0.1430   8.1800e+06
   74   77    2   0.1530   7.1500e+06
   76   90    2   0.1430   8.1800e+06
   77   78    2   0.1120   3.7000e+07
   77   79    2   0.1120   3.7000e+07
   77   80    2   0.1410   6.5389e+06
   80   81    2   0.0971   7.9547e+06
   82   83    2   0.1130   7.0483e+06
   82   84    2   0.1410   6.5389e+06
   82   86    2   0.1560   3.0819e+06
   84   85    2   0.0971   7.9547e+06
   86   87    2   0.1130   7.0483e+06
   86   88    2   0.1435   6.1000e+06
   86   90    2   0.1560   3.0819e+06
   88   89    2   0.1000   1.8700e+07
   88  310    2   0.1390   8.6600e+06
   90   91    2   0.1130   7.0483e+06
   90   92    2   0.1410   6.5389e+06
   92   93    2   0.1430   8.1800e+06
   93   94    2   0.1120   3.7000e+07
   93   95    2   0.1530   7.1500e+06
   93  103    2   0.1530   7.1500e+06
   95   96    2   0.1120   3.7000e+07
   95   97    2   0.1430   8.1800e+06
   95   98    2   0.1530   7.1500e+06
   97  111    2   0.1430   8.1800e+06
   98   99    2   0.1120   3.7000e+07
   98  100    2   0.1120   3.7000e+07
   98  101    2   0.1410   6.5389e+06
  101  102    2   0.0971   7.9547e+06
  103  104    2   0.1130   7.0483e+06
  103  105    2   0.1410   6.5389e+06
  103  107    2   0.1560   3.0819e+06
  105  106    2   0.0971   7.9547e+06
  107  108    2   0.1130   7.0483e+06
  107  109    2   0.1435   6.1000e+06
  107  111    2   0.1560   3.0819e+06
  109  110    2   0.1000   1.8700e+07
  109  304    2   0.1390   8.6600e+06
  111  112    2   0.1130   7.0483e+06
  111  113    2   0.1410   6.5389e+06
  113  114    2   0.1430   8.1800e+06
  114  115    2   0.1120   3.7000e+07
  114  116    2   0.1530   7.1500e+06
  114  124    2   0.1530   7.1500e+06
  116  117    2   0.1120   3.7000e+07
  116  118    2   0.1430   8.1800e+06
  116  119    2   0.1530   7.1500e+06
  118  132    2   0.1430   8.1800e+06
  119  120    2   0.1120   3.7000e+07
  119  121    2   0.1120   3.7000e+07
  119  122    2   0.1410   6.5389e+06
  122  123    2   0.0971   7.9547e+06
  124  125    2   0.1130   7.0483e+06
  124  126    2   0.1410   6.5389e+06
  124  128    2   0.1560   3.0819e+06
  126  127    2   0.0971   7.9547e+06
  128  129    2   0.1130   7.0483e+06
  128  130    2   0.1435   6.1000e+06
  128  132    2   0.1560   3.0819e+06
  130  131    2   0.1000   1.8700e+07
  130  298    2   0.1390   8.6600e+06
  132  133    2   0.1130   7.0483e+06
  132  134    2   0.1410   6.5389e+06
  134  135    2   0.1430   8.1800e+06
  135  136    2   0.1120   3.7000e+07
  135  137    2   0.1530   7.1500e+06
  135  145    2   0.1530   7.1500e+06
  137  138    2   0.1120   3.7000e+07
  137  139    2   0.1430   8.1800e+06
  137  140    2   0.1530   7.1500e+06
  139  153    2   0.1430   8.1800e+06
  140  141    2   0.1120   3.7000e+07
  140  142    2   0.1120   3.7000e+07
  140  143    2   0.1410   6.5389e+06
  143  144    2   0.0971   7.9547e+06
  145  146    2   0.1130   7.0483e+06
  145  147    2   0.1410   6.5389e+06
  145  149    2   0.1560   3.0819e+06
  147  148    2   0.0971   7.9547e+06
  149  150    2   0.1130   7.0483e+06
  149  151    2   0.1435   6.1000e+06
  149  153    2   0.1560   3.0819e+06
  151  152    2   0.1000   1.8700e+07
  151  292    2   0.1390   8.6600e+06
  153  154    2   0.1130   7.0483e+06
  153  155    2   0.1410   6.5389e+06
  155  156    2   0.1430   8.1800e+06
  156  157    2   0.1120   3.7000e+07
  156  158    2   0.1530   7.1500e+06
  156  166    2   0.1530   7.1500e+06
  158  159    2   0.1120   3.7000e+07
  158  160    2   0.1430   8.1800e+06
  158  161    2   0.1530   7.1500e+06
  160  174    2   0.1430   8.1800e+06
  161  162    2   0.1120   3.7000e+07
  161  163    2   0.1120   3.7000e+07
  161  164    2   0.1410   6.5389e+06
  164  165    2   0.0971   7.9547e+06
  166  167    2   0.1130   7.0483e+06
  166  168    2   0.1410   6.5389e+06
  166  170    2   0.1560   3.0819e+06
  168  169    2   0.0971   7.9547e+06
  170  171    2   0.1130   7.0483e+06
  170  172    2   0.1435   6.1000e+06
  170  174    2   0.1560   3.0819e+06
  172  173    2   0.1000   1.8700e+07
  172  286    2   0.1390   8.6600e+06
  174  175    2   0.1130   7.0483e+06
  174  176    2   0.1410   6.5389e+06
  176  177    2   0.1430   8.1800e+06
  177  178    2   0.1120   3.7000e+07
  177  179    2   0.1530   7.1500e+06
  177  187    2   0.1530   7.1500e+06
  179  180    2   0.1120   3.7000e+07
  179  181    2   0.1430   8.1800e+06
  179  182    2   0.1530   7.1500e+06
  181  195    2   0.1430   8.1800e+06
  182  183    2   0.1120   3.7000e+07
  182  184    2   0.1120   3.7000e+07
  182  185    2   0.1410   6.5389e+06
  185  186    2   0.0971   7.9547e+06
  187  188    2   0.1130   7.0483e+06
  187  189    2   0.1410   6.5389e+06
  187  191    2   0.1560   3.0819e+06
  189  190    2   0.0971   7.9547e+06
  191  192    2   0.1130   7.0483e+06
  191  193    2   0.1435   6.1000e+06
  191  195    2   0.1560   3.0819e+06
  193  194    2   0.1000   1.8700e+07
  193  280    2   0.1390   8.6600e+06
  195  196    2   0.1130   7.0483e+06
  195  197    2   0.1410   6.5389e+06
  197  198    2   0.1430   8.1800e+06
  198  199    2   0.1120   3.7000e+07
  198  200    2   0.1530   7.1500e+06
  198  208    2   0.1530   7.1500e+06
  200  201    2   0.1120   3.7000e+07
  200  202    2   0.1430   8.1800e+06
  200  203    2   0.1530   7.1500e+06
  202  216    2   0.1430   8.1800e+06
  203  204    2   0.1120   3.7000e+07
  203  205    2   0.1120   3.7000e+07
  203  206    2   0.1410   6.5389e+06
  206  207    2   0.0971   7.9547e+06
  208  209    2   0.1130   7.0483e+06
  208  210    2   0.1410   6.5389e+06
  208  212    2   0.1560   3.0819e+06
  210  211    2   0.0971   7.9547e+06
  212  213    2   0.1130   7.0483e+06
  212  214    2   0.1435   6.1000e+06
  212  216    2   0.1560   3.0819e+06
  214  215    2   0.1000   1.8700e+07
  214  274    2   0.1390   8.6600e+06
  216  217    2   0.1130   7.0483e+06
  216  218    2   0.1410   6.5389e+06
  218  219    2   0.1430   8.1800e+06
  219  220    2   0.1120   3.7000e+07
  219  221    2   0.1530   7.1500e+06
  219  229    2   0.1530   7.1500e+06
  221  222    2   0.1120   3.7000e+07
  221  223    2   0.1430   8.1800e+06
  221  224    2   0.1530   7.1500e+06
  223  237    2   0.1430   8.1800e+06
  224  225    2   0.1120   3.7000e+07
  224  226    2   0.1120   3.7000e+07
  224  227    2   0.1410   6.5389e+06
  227  228    2   0.0971   7.9547e+06
  229  230    2   0.1130   7.0483e+06
  229  231    2   0.1410   6.5389e+06
  229  233    2   0.1560   3.0819e+06
  231  232    2   0.0971   7.9547e+06
  233  234    2   0.1130   7.0483e+06
  233  235    2   0.1435   6.1000e+06
  233  237    2   0.1560   3.0819e+06
  235  236    2   0.1000   1.8700e+07
  235  268    2   0.1390   8.6600e+06
  237  238    2   0.1130   7.0483e+06
  237  239    2   0.1410   6.5389e+06
  239  240    2   0.1430   8.1800e+06
  240  241    2   0.1120   3.7000e+07
  240  242    2   0.1530   7.1500e+06
  240  250    2   0.1540   4.2166e+06
  242  243    2   0.1130   7.0483e+06
  242  244    2   0.1430   8.1800e+06
  242  245    2   0.1530   7.1500e+06
  244  258    2   0.1430   8.1800e+06
  245  246    2   0.1120   3.7000e+07
  245  247    2   0.1120   3.7000e+07
  245  248    2   0.1410   6.5389e+06
  248  249    2   0.0971   7.9547e+06
  250  251    2   0.1130   7.0483e+06
  250  252    2   0.1420   3.2236e+06
  250  254    2   0.1540   4.2166e+06
  252  253    2   0.0971   7.9547e+06
  254  255    2   0.1130   7.0483e+06
  254  256    2   0.1435   6.1000e+06
  254  258    2   0.1560   3.0819e+06
  256  257    2   0.1000   1.8700e+07
  256  262    2   0.1380   1.1000e+07
  258  259    2   0.1120   3.7000e+07
  258  260    2   0.1390   8.6600e+06
  260  261    2   0.0971   7.9547e+06
  262  263    2   0.1250   1.3400e+07
  262  264    2   0.1510   3.7279e+06
  264  265    2   0.1120   3.7000e+07
  264  266    2   0.1120   3.7000e+07
  264  267    2   0.1120   3.7000e+07
  268  269    2   0.1250   1.3400e+07
  268  270    2   0.1510   3.7279e+06
  270  271    2   0.1120   3.7000e+07
  270  272    2   0.1120   3.7000e+07
  270  273    2   0.1120   3.7000e+07
  274  275    2   0.1250   1.3400e+07
  274  276    2   0.1510   3.7279e+06
  276  277    2   0.1120   3.7000e+07
  276  278    2   0.1120   3.7000e+07
  276  279    2   0.1120   3.7000e+07
  280  281    2   0.1250   1.3400e+07
  280  282    2   0.1510   3.7279e+06
  282  283    2   0.1120   3.7000e+07
  282  284    2   0.1120   3.7000e+07
  282  285    2   0.1120   3.7000e+07
  286  287    2   0.1250   1.3400e+07
  286  288    2   0.1510   3.7279e+06
  288  289    2   0.1120   3.7000e+07
  288  290    2   0.1120   3.7000e+07
  288  291    2   0.1120   3.7000e+07
  292  293    2   0.1250   1.3400e+07
  292  294    2   0.1510   3.7279e+06
  294  295    2   0.1120   3.7000e+07
  294  296    2   0.1120   3.7000e+07
  294  297    2   0.1120   3.7000e+07
  298  299    2   0.1250   1.3400e+07
  298  300    2   0.1510   3.7279e+06
  300  301    2   0.1120   3.7000e+07
  300  302    2   0.1120   3.7000e+07
  300  303    2   0.1120   3.7000e+07
  304  305    2   0.1250   1.3400e+07
  304  306    2   0.1510   3.7279e+06
  306  307    2   0.1120   3.7000e+07
  306  308    2   0.1120   3.7000e+07
  306  309    2   0.1120   3.7000e+07
  310  311    2   0.1250   1.3400e+07
  310  312    2   0.1510   3.7279e+06
  312  313    2   0.1120   3.7000e+07
  312  314    2   0.1120   3.7000e+07
  312  315    2   0.1120   3.7000e+07
  316  317    2   0.1250   1.3400e+07
  316  318    2   0.1510   3.7279e+06
  318  319    2   0.1120   3.7000e+07
  318  320    2   0.1120   3.7000e+07
  318  321    2   0.1120   3.7000e+07
  322  323    2   0.1250   1.3400e+07
  322  324    2   0.1510   3.7279e+06
  324  325    2   0.1120   3.7000e+07
  324  326    2   0.1120   3.7000e+07
  324  327    2   0.1120   3.7000e+07
[ pairs ]
;  ai   aj  funct  ;  all 1-4 pairs but the ones excluded in GROMOS itp
    1    6    1
    1    7    1
    2    8    1
    2    9    1
    3    6    1
    3    7    1
    4    6    1
    4    7    1
    5   10    1
    5   11    1
    5   26    1
    6    8    1
    6    9    1
    7   12    1
    7   13    1
    7   14    1
    7   22    1
    7   27    1
    7   28    1
    8   10    1
    8   11    1
    8   26    1
    9   15    1
    9   23    1
    9   24    1
    9   29    1
    9   30    1
   10   12    1
   10   13    1
   10   14    1
   10   22    1
   10   27    1
   10   28    1
   11   16    1
   11   17    1
   11   22    1
   11   27    1
   11   28    1
   11   31    1
   11   32    1
   11   40    1
   12   15    1
   12   26    1
   12   30    1
   13   15    1
   13   26    1
   13   33    1
   13   34    1
   13   35    1
   13   41    1
   13   42    1
   13   44    1
   14   18    1
   14   19    1
   14   20    1
   14   23    1
   14   24    1
   14   26    1
   14   30    1
   15   21    1
   15   25    1
   15   27    1
   15   28    1
   16   18    1
   16   19    1
   16   20    1
   16   23    1
   16   24    1
   16   26    1
   17   23    1
   17   24    1
   17   26    1
   18   21    1
   18   22    1
   19   21    1
   19   22    1
   20   22    1
   22   29    1
   23   25    1
   23   27    1
   23   28    1
   24   27    1
   24   28    1
   25   26    1
   27   29    1
   30   36    1
   30   37    1
   30   38    1
   30   43    1
   30   45    1
   30   46    1
   30   48    1
   31   33    1
   31   34    1
   31   35    1
   31   41    1
   31   42    1
   31   44    1
   32   39    1
   32   41    1
   32   42    1
   32   44    1
   32   49    1
   32   50    1
   33   36    1
   33   37    1
   33   38    1
   33   40    1
   33   48    1
   34   36    1
   34   37    1
   34   38    1
   34   40    1
   34   45    1
   34   46    1
   34   51    1
   35   40    1
   35   48    1
   36   39    1
   37   39    1
   40   47    1
   40   49    1
   40   50    1
   40  322    1
   41   43    1
   41   45    1
   41   46    1
   41   48    1
   42   45    1
   42   46    1
   42   48    1
   43   44    1
   44   51    1
   44  323    1
   44  324    1
   45   47    1
   45   49    1
   45   50    1
   45  322    1
   46   49    1
   46   50    1
   46  325    1
   46  326    1
   46  327    1
   47   48    1
   47  323    1
   47  324    1
   48   52    1
   48   53    1
   48   61    1
   48  322    1
   49   51    1
   50   54    1
   50   55    1
   50   56    1
   50   62    1
   50   63    1
   50   65    1
   51   57    1
   51   58    1
   51   59    1
   51   64    1
   51   66    1
   51   67    1
   51   69    1
   52   54    1
   52   55    1
   52   56    1
   52   62    1
   52   63    1
   52   65    1
   53   60    1
   53   62    1
   53   63    1
   53   65    1
   53   70    1
   53   71    1
   54   57    1
   54   58    1
   54   59    1
   54   61    1
   54   69    1
   55   57    1
   55   58    1
   55   59    1
   55   61    1
   55   66    1
   55   67    1
   55   72    1
   56   61    1
   56   69    1
   57   60    1
   58   60    1
   61   68    1
   61   70    1
   61   71    1
   61  316    1
   62   64    1
   62   66    1
   62   67    1
   62   69    1
   63   66    1
   63   67    1
   63   69    1
   64   65    1
   65   72    1
   65  317    1
   65  318    1
   66   68    1
   66   70    1
   66   71    1
   66  316    1
   67   70    1
   67   71    1
   67  319    1
   67  320    1
   67  321    1
   68   69    1
   68  317    1
   68  318    1
   69   73    1
   69   74    1
   69   82    1
   69  316    1
   70   72    1
   71   75    1
   71   76    1
   71   77    1
   71   83    1
   71   84    1
   71   86    1
   72   78    1
   72   79    1
   72   80    1
   72   85    1
   72   87    1
   72   88    1
   72   90    1
   73   75    1
   73   76    1
   73   77    1
   73   83    1
   73   84    1
   73   86    1
   74   81    1
   74   83    1
   74   84    1
   74   86    1
   74   91    1
   74   92    1
   75   78    1
   75   79    1
   75   80    1
   75   82    1
   75   90    1
   76   78    1
   76   79    1
   76   80    1
   76   82    1
   76   87    1
   76   88    1
   76   93    1
   77   82    1
   77   90    1
   78   81    1
   79   81    1
   82   89    1
   82   91    1
   82   92    1
   82  310    1
   83   85    1
   83   87    1
   83   88    1
   83   90    1
   84   87    1
   84   88    1
   84   90    1
   85   86    1
   86   93    1
   86  311    1
   86  312    1
   87   89    1
   87   91    1
   87   92    1
   87  310    1
   88   91    1
   88   92    1
   88  313    1
   88  314    1
   88  315    1
   89   90    1
   89  311    1
   89  312    1
   90   94    1
   90   95    1
   90  103    1
   90  310    1
   91   93    1
   92   96    1
   92   97    1
   92   98    1
   92  104    1
   92  105    1
   92  107    1
   93   99    1
   93  100    1
   93  101    1
   93  106    1
   93  108    1
   93  109    1
   93  111    1
   94   96    1
   94   97    1
   94   98    1
   94  104    1
   94  105    1
   94  107    1
   95  102    1
   95  104    1
   95  105    1
   95  107    1
   95  112    1
   95  113    1
   96   99    1
   96  100    1
   96  101    1
   96  103    1
   96  111    1
   97   99    1
   97  100    1
   97  101    1
   97  103    1
   97  108    1
   97  109    1
   97  114    1
   98  103    1
   98  111    1
   99  102    1
  100  102    1
  103  110    1
  103  112    1
  103  113    1
  103  304    1
  104  106    1
  104  108    1
  104  109    1
  104  111    1
  105  108    1
  105  109    1
  105  111    1
  106  107    1
  107  114    1
  107  305    1
  107  306    1
  108  110    1
  108  112    1
  108  113    1
  108  304    1
  109  112    1
  109  113    1
  109  307    1
  109  308    1
  109  309    1
  110  111    1
  110  305    1
  110  306    1
  111  115    1
  111  116    1
  111  124    1
  111  304    1
  112  114    1
  113  117    1
  113  118    1
  113  119    1
  113  125    1
  113  126    1
  113  128    1
  114  120    1
  114  121    1
  114  122    1
  114  127    1
  114  129    1
  114  130    1
  114  132    1
  115  117    1
  115  118    1
  115  119    1
  115  125    1
  115  126    1
  115  128    1
  116  123    1
  116  125    1
  116  126    1
  116  128    1
  116  133    1
  116  134    1
  117  120    1
  117  121    1
  117  122    1
  117  124    1
  117  132    1
  118  120    1
  118  121    1
  118  122    1
  118  124    1
  118  129    1
  118  130    1
  118  135    1
  119  124    1
  119  132    1
  120  123    1
  121  123    1
  124  131    1
  124  133    1
  124  134    1
  124  298    1
  125  127    1
  125  129    1
  125  130    1
  125  132    1
  126  129    1
  126  130    1
  126  132    1
  127  128    1
  128  135    1
  128  299    1
  128  300    1
  129  131    1
  129  133    1
  129  134    1
  129  298    1
  130  133    1
  130  134    1
  130  301    1
  130  302    1
  130  303    1
  131  132    1
  131  299    1
  131  300    1
  132  136    1
  132  137    1
  132  145    1
  132  298    1
  133  135    1
  134  138    1
  134  139    1
  134  140    1
  134  146    1
  134  147    1
  134  149    1
  135  141    1
  135  142    1
  135  143    1
  135  148    1
  135  150    1
  135  151    1
  135  153    1
  136  138    1
  136  139    1
  136  140    1
  136  146    1
  136  147    1
  136  149    1
  137  144    1
  137  146    1
  137  147    1
  137  149    1
  137  154    1
  137  155    1
  138  141    1
  138  142    1
  138  143    1
  138  145    1
  138  153    1
  139  141    1
  139  142    1
  139  143    1
  139  145    1
  139  150    1
  139  151    1
  139  156    1
  140  145    1
  140  153    1
  141  144    1
  142  144    1
  145  152    1
  145  154    1
  145  155    1
  145  292    1
  146  148    1
  146  150    1
  146  151    1
  146  153    1
  147  150    1
  147  151    1
  147  153    1
  148  149    1
  149  156    1
  149  293    1
  149  294    1
  150  152    1
  150  154    1
  150  155    1
  150  292    1
  151  154    1
  151  155    1
  151  295    1
  151  296    1
  151  297    1
  152  153    1
  152  293    1
  152  294    1
  153  157    1
  153  158    1
  153  166    1
  153  292    1
  154  156    1
  155  159    1
  155  160    1
  155  161    1
  155  167    1
  155  168    1
  155  170    1
  156  162    1
  156  163    1
  156  164    1
  156  169    1
  156  171    1
  156  172    1
  156  174    1
  157  159    1
  157  160    1
  157  161    1
  157  167    1
  157  168    1
  157  170    1
  158  165    1
  158  167    1
  158  168    1
  158  170    1
  158  175    1
  158  176    1
  159  162    1
  159  163    1
  159  164    1
  159  166    1
  159  174    1
  160  162    1
  160  163    1
  160  164    1
  160  166    1
  160  171    1
  160  172    1
  160  177    1
  161  166    1
  161  174    1
  162  165    1
  163  165    1
  166  173    1
  166  175    1
  166  176    1
  166  286    1
  167  169    1
  167  171    1
  167  172    1
  167  174    1
  168  171    1
  168  172    1
  168  174    1
  169  170    1
  170  177    1
  170  287    1
  170  288    1
  171  173    1
  171  175    1
  171  176    1
  171  286    1
  172  175    1
  172  176    1
  172  289    1
  172  290    1
  172  291    1
  173  174    1
  173  287    1
  173  288    1
  174  178    1
  174  179    1
  174  187    1
  174  286    1
  175  177    1
  176  180    1
  176  181    1
  176  182    1
  176  188    1
  176  189    1
  176  191    1
  177  183    1
  177  184    1
  177  185    1
  177  190    1
  177  192    1
  177  193    1
  177  195    1
  178  180    1
  178  181    1
  178  182    1
  178  188    1
  178  189    1
  178  191    1
  179  186    1
  179  188    1
  179  189    1
  179  191    1
  179  196    1
  179  197    1
  180  183    1
  180  184    1
  180  185    1
  180  187    1
  180  195    1
  181  183    1
  181  184    1
  181  185    1
  181  187    1
  181  192    1
  181  193    1
  181  198    1
  182  187    1
  182  195    1
  183  186    1
  184  186    1
  187  194    1
  187  196    1
  187  197    1
  187  280    1
  188  190    1
  188  192    1
  188  193    1
  188  195    1
  189  192    1
  189  193    1
  189  195    1
  190  191    1
  191  198    1
  191  281    1
  191  282    1
  192  194    1
  192  196    1
  192  197    1
  192  280    1
  193  196    1
  193  197    1
  193  283    1
  193  284    1
  193  285    1
  194  195    1
  194  281    1
  194  282    1
  195  199    1
  195  200    1
  195  208    1
  195  280    1
  196  198    1
  197  201    1
  197  202    1
  197  203    1
  197  209    1
  197  210    1
  197  212    1
  198  204    1
  198  205    1
  198  206    1
  198  211    1
  198  213    1
  198  214    1
  198  216    1
  199  201    1
  199  202    1
  199  203    1
  199  209    1
  199  210    1
  199  212    1
  200  207    1
  200  209    1
  200  210    1
  200  212    1
  200  217    1
  200  218    1
  201  204    1
  201  205    1
  201  206    1
  201  208    1
  201  216    1
  202  204    1
  202  205    1
  202  206    1
  202  208    1
  202  213    1
  202  214    1
  202  219    1
  203  208    1
  203  216    1
  204  207    1
  205  207    1
  208  215    1
  208  217    1
  208  218    1
  208  274    1
  209  211    1
  209  213    1
  209  214    1
  209  216    1
  210  213    1
  210  214    1
  210  216    1
  211  212    1
  212  219    1
  212  275    1
  212  276    1
  213  215    1
  213  217    1
  213  218    1
  213  274    1
  214  217    1
  214  218    1
  214  277    1
  214  278    1
  214  279    1
  215  216    1
  215  275    1
  215  276    1
  216  220    1
  216  221    1
  216  229    1
  216  274    1
  217  219    1
  218  222    1
  218  223    1
  218  224    1
  218  230    1
  218  231    1
  218  233    1
  219  225    1
  219  226    1
  219  227    1
  219  232    1
  219  234    1
  219  235    1
  219  237    1
  220  222    1
  220  223    1
  220  224    1
  220  230    1
  220  231    1
  220  233    1
  221  228    1
  221  230    1
  221  231    1
  221  233    1
  221  238    1
  221  239    1
  222  225    1
  222  226    1
  222  227    1
  222  229    1
  222  237    1
  223  225    1
  223  226    1
  223  227    1
  223  229    1
  223  234    1
  223  235    1
  223  240    1
  224  229    1
  224  237    1
  225  228    1
  226  228    1
  229  236    1
  229  238    1
  229  239    1
  229  268    1
  230  232    1
  230  234    1
  230  235    1
  230  237    1
  231  234    1
  231  235    1
  231  237    1
  232  233    1
  233  240    1
  233  269    1
  233  270    1
  234  236    1
  234  238    1
  234  239    1
  234  268    1
  235  238    1
  235  239    1
  235  271    1
  235  272    1
  235  273    1
  236  237    1
  236  269    1
  236  270    1
  237  241    1
  237  242    1
  237  250    1
  237  268    1
  238  240    1
  239  243    1
  239  244    1
  239  245    1
  239  251    1
  239  252    1
  239  254    1
  240  246    1
  240  247    1
  240  248    1
  240  253    1
  240  255    1
  240  256    1
  240  258    1
  241  243    1
  241  244    1
  241  245    1
  241  251    1
  241  252    1
  241  254    1
  242  249    1
  242  251    1
  242  252    1
  242  254    1
  242  259    1
  242  260    1
  243  246    1
  243  247    1
  243  248    1
  243  250    1
  243  258    1
  244  246    1
  244  247    1
  244  248    1
  244  250    1
  244  255    1
  244  256    1
  244  261    1
  245  250    1
  245  258    1
  246  249    1
  247  249    1
  250  257    1
  250  259    1
  250  260    1
  250  262    1
  251  253    1
  251  255    1
  251  256    1
  251  258    1
  252  255    1
  252  256    1
  252  258    1
  253  254    1
  254  261    1
  254  263    1
  254  264    1
  255  257    1
  255  259    1
  255  260    1
  255  262    1
  256  259    1
  256  260    1
  256  265    1
  256  266    1
  256  267    1
  257  258    1
  257  263    1
  257  264    1
  258  262    1
  259  261    1
  263  265    1
  263  266    1
  263  267    1
  269  271    1
  269  272    1
  269  273    1
  275  277    1
  275  278    1
  275  279    1
  281  283    1
  281  284    1
  281  285    1
  287  289    1
  287  290    1
  287  291    1
  293  295    1
  293  296    1
  293  297    1
  299  301    1
  299  302    1
  299  303    1
  305  307    1
  305  308    1
  305  309    1
  311  313    1
  311  314    1
  311  315    1
  317  319    1
  317  320    1
  317  321    1
  323  325    1
  323  326    1
  323  327    1
[ angles ]
;  ai   aj   ak  funct   angle     fc
    1    2    3    2    109.00  1680.51
    1    2    4    2    109.00  1680.51
    1    2    5    2    108.53   443.00
    3    2    4    2    109.00  1680.51
    3    2    5    2    108.53   443.00
    4    2    5    2    108.53   443.00
    2    5    6    2    121.00   685.00
    2    5    7    2    115.00   610.00
    6    5    7    2    124.00   730.00
    5    7    8    2    120.00   390.00
    5    7    9    2    121.00   685.00
    8    7    9    2    120.00   390.00
    7    9   10    2    108.00   465.00
    7    9   11    2    111.00   530.00
    7    9   26    2    115.00   610.00
   10    9   11    2    108.00   465.00
   10    9   26    2    108.00   465.00
   11    9   26    2    109.50   520.00
    9   11   12    2    113.00   545.00
    9   11   13    2    109.50   520.00
    9   11   14    2    111.00   530.00
   12   11   13    2    111.40   532.00
   12   11   14    2    111.00   530.00
   13   11   14    2    101.00  2076.33
   11   13   30    2    109.50   450.00
   11   14   15    2    109.50   450.00
   14   15   16    2    109.60   450.00
   14   15   17    2    109.50   520.00
   14   15   22    2    109.50   520.00
   16   15   17    2    110.00  4763.46
   16   15   22    2    109.60   450.00
   17   15   22    2    111.00   530.00
   15   17   18    2    109.50   285.00
   15   17   19    2    108.53   443.00
   15   17   20    2    111.00   530.00
   18   17   19    2    110.30   524.00
   18   17   20    2    110.30   524.00
   19   17   20    2    106.00  1733.55
   17   20   21    2    109.50   450.00
   15   22   23    2    109.60   450.00
   15   22   24    2    109.50   520.00
   15   22   26    2    109.50   520.00
   23   22   24    2    109.60   450.00
   23   22   26    2    110.30   524.00
   24   22   26    2    109.50   520.00
   22   24   25    2    109.50   450.00
    9   26   22    2    109.50   520.00
    9   26   27    2    111.30   632.00
    9   26   28    2    111.00   530.00
   22   26   27    2    109.50   285.00
   22   26   28    2    109.50   520.00
   27   26   28    2    104.00   490.00
   26   28   29    2    109.50   450.00
   13   30   31    2    111.40   532.00
   13   30   32    2    109.50   520.00
   13   30   40    2    109.50   520.00
   31   30   32    2    110.00  4763.46
   31   30   40    2    110.00  4763.46
   32   30   40    2    109.50   520.00
   30   32   33    2    110.30   524.00
   30   32   34    2    109.50   520.00
   30   32   35    2    111.00   530.00
   33   32   34    2    110.00  4763.46
   33   32   35    2    109.60   450.00
   34   32   35    2    109.50   520.00
   32   34   48    2    109.50   450.00
   32   35   36    2    109.60   450.00
   32   35   37    2    109.00  1680.51
   32   35   38    2    111.00   530.00
   36   35   37    2    110.30   524.00
   36   35   38    2    110.30   524.00
   37   35   38    2    106.00  1733.55
   35   38   39    2    109.50   450.00
   30   40   41    2    109.50   285.00
   30   40   42    2    111.00   530.00
   30   40   44    2    109.50   520.00
   41   40   42    2    109.00  1680.51
   41   40   44    2    111.00   530.00
   42   40   44    2    109.50   520.00
   40   42   43    2    109.50   450.00
   40   44   45    2    109.00  1680.51
   40   44   46    2    115.00   610.00
   40   44   48    2    109.50   520.00
   45   44   46    2    108.53   443.00
   45   44   48    2    108.00   465.00
   46   44   48    2    111.00   530.00
   44   46   47    2    116.00   465.00
   44   46  322    2    122.00   700.00
   47   46  322    2    120.00   390.00
   34   48   44    2    111.00   530.00
   34   48   49    2    110.30   524.00
   34   48   50    2    101.00  2076.33
   44   48   49    2    113.00   545.00
   44   48   50    2    109.50   520.00
   49   48   50    2    113.00   545.00
   48   50   51    2    109.50   450.00
   50   51   52    2    111.40   532.00
   50   51   53    2    109.50   520.00
   50   51   61    2    109.50   520.00
   52   51   53    2    110.00  4763.46
   52   51   61    2    110.00  4763.46
   53   51   61    2    109.50   520.00
   51   53   54    2    110.30   524.00
   51   53   55    2    109.50   520.00
   51   53   56    2    111.00   530.00
   54   53   55    2    110.00  4763.46
   54   53   56    2    109.60   450.00
   55   53   56    2    109.50   520.00
   53   55   69    2    109.50   450.00
   53   56   57    2    109.60   450.00
   53   56   58    2    109.00  1680.51
   53   56   59    2    111.00   530.00
   57   56   58    2    110.30   524.00
   57   56   59    2    110.30   524.00
   58   56   59    2    106.00  1733.55
   56   59   60    2    109.50   450.00
   51   61   62    2    109.50   285.00
   51   61   63    2    111.00   530.00
   51   61   65    2    109.50   520.00
   62   61   63    2    109.00  1680.51
   62   61   65    2    111.00   530.00
   63   61   65    2    109.50   520.00
   61   63   64    2    109.50   450.00
   61   65   66    2    109.00  1680.51
   61   65   67    2    111.00   530.00
   61   65   69    2    109.50   520.00
   66   65   67    2    108.53   443.00
   66   65   69    2    108.00   465.00
   67   65   69    2    111.00   530.00
   65   67   68    2    116.00   465.00
   65   67  316    2    122.00   700.00
   68   67  316    2    120.00   390.00
   55   69   65    2    111.00   530.00
   55   69   70    2    110.30   524.00
   55   69   71    2    101.00  2076.33
   65   69   70    2    113.00   545.00
   65   69   71    2    109.50   520.00
   70   69   71    2    113.00   545.00
   69   71   72    2    109.50   450.00
   71   72   73    2    111.40   532.00
   71   72   74    2    109.50   520.00
   71   72   82    2    109.50   520.00
   73   72   74    2    110.00  4763.46
   73   72   82    2    110.00  4763.46
   74   72   82    2    109.50   520.00
   72   74   75    2    110.30   524.00
   72   74   76    2    109.50   520.00
   72   74   77    2    111.00   530.00
   75   74   76    2    110.00  4763.46
   75   74   77    2    109.60   450.00
   76   74   77    2    109.50   520.00
   74   76   90    2    109.50   450.00
   74   77   78    2    109.60   450.00
   74   77   79    2    109.00  1680.51
   74   77   80    2    111.00   530.00
   78   77   79    2    110.30   524.00
   78   77   80    2    110.30   524.00
   79   77   80    2    106.00  1733.55
   77   80   81    2    109.50   450.00
   72   82   83    2    109.50   285.00
   72   82   84    2    111.00   530.00
   72   82   86    2    109.50   520.00
   83   82   84    2    109.00  1680.51
   83   82   86    2    111.00   530.00
   84   82   86    2    109.50   520.00
   82   84   85    2    109.50   450.00
   82   86   87    2    109.00  1680.51
   82   86   88    2    111.00   530.00
   82   86   90    2    109.50   520.00
   87   86   88    2    108.53   443.00
   87   86   90    2    108.00   465.00
   88   86   90    2    111.00   530.00
   86   88   89    2    116.00   465.00
   86   88  310    2    122.00   700.00
   89   88  310    2    120.00   390.00
   76   90   86    2    111.00   530.00
   76   90   91    2    110.30   524.00
   76   90   92    2    101.00  2076.33
   86   90   91    2    113.00   545.00
   86   90   92    2    109.50   520.00
   91   90   92    2    113.00   545.00
   90   92   93    2    109.50   450.00
   92   93   94    2    111.40   532.00
   92   93   95    2    109.50   520.00
   92   93  103    2    109.50   520.00
   94   93   95    2    110.00  4763.46
   94   93  103    2    110.00  4763.46
   95   93  103    2    109.50   520.00
   93   95   96    2    110.30   524.00
   93   95   97    2    109.50   520.00
   93   95   98    2    111.00   530.00
   96   95   97    2    110.00  4763.46
   96   95   98    2    109.60   450.00
   97   95   98    2    109.50   520.00
   95   97  111    2    109.50   450.00
   95   98   99    2    109.60   450.00
   95   98  100    2    109.00  1680.51
   95   98  101    2    111.00   530.00
   99   98  100    2    110.30   524.00
   99   98  101    2    110.30   524.00
  100   98  101    2    106.00  1733.55
   98  101  102    2    109.50   450.00
   93  103  104    2    109.00  1680.51
   93  103  105    2    111.00   530.00
   93  103  107    2    109.50   520.00
  104  103  105    2    109.00  1680.51
  104  103  107    2    111.00   530.00
  105  103  107    2    109.50   520.00
  103  105  106    2    109.50   450.00
  103  107  108    2    109.00  1680.51
  103  107  109    2    111.00   530.00
  103  107  111    2    109.50   520.00
  108  107  109    2    108.53   443.00
  108  107  111    2    108.00   465.00
  109  107  111    2    111.00   530.00
  107  109  110    2    116.00   465.00
  107  109  304    2    122.00   700.00
  110  109  304    2    120.00   390.00
   97  111  107    2    111.00   530.00
   97  111  112    2    110.30   524.00
   97  111  113    2    101.00  2076.33
  107  111  112    2    113.00   545.00
  107  111  113    2    109.50   520.00
  112  111  113    2    113.00   545.00
  111  113  114    2    109.50   450.00
  113  114  115    2    111.40   532.00
  113  114  116    2    109.50   520.00
  113  114  124    2    109.50   520.00
  115  114  116    2    110.00  4763.46
  115  114  124    2    110.00  4763.46
  116  114  124    2    109.50   520.00
  114  116  117    2    110.30   524.00
  114  116  118    2    109.50   520.00
  114  116  119    2    111.00   530.00
  117  116  118    2    110.00  4763.46
  117  116  119    2    109.60   450.00
  118  116  119    2    109.50   520.00
  116  118  132    2    109.50   450.00
  116  119  120    2    109.60   450.00
  116  119  121    2    109.00  1680.51
  116  119  122    2    111.00   530.00
  120  119  121    2    110.30   524.00
  120  119  122    2    110.30   524.00
  121  119  122    2    106.00  1733.55
  119  122  123    2    109.50   450.00
  114  124  125    2    109.00  1680.51
  114  124  126    2    111.00   530.00
  114  124  128    2    109.50   520.00
  125  124  126    2    109.00  1680.51
  125  124  128    2    111.00   530.00
  126  124  128    2    109.50   520.00
  124  126  127    2    109.50   450.00
  124  128  129    2    109.00  1680.51
  124  128  130    2    111.00   530.00
  124  128  132    2    109.50   520.00
  129  128  130    2    108.53   443.00
  129  128  132    2    108.00   465.00
  130  128  132    2    111.00   530.00
  128  130  131    2    116.00   465.00
  128  130  298    2    122.00   700.00
  131  130  298    2    120.00   390.00
  118  132  128    2    111.00   530.00
  118  132  133    2    110.30   524.00
  118  132  134    2    101.00  2076.33
  128  132  133    2    113.00   545.00
  128  132  134    2    109.50   520.00
  133  132  134    2    113.00   545.00
  132  134  135    2    109.50   450.00
  134  135  136    2    111.40   532.00
  134  135  137    2    109.50   520.00
  134  135  145    2    109.50   520.00
  136  135  137    2    110.00  4763.46
  136  135  145    2    110.00  4763.46
  137  135  145    2    109.50   520.00
  135  137  138    2    110.30   524.00
  135  137  139    2    109.50   520.00
  135  137  140    2    111.00   530.00
  138  137  139    2    110.00  4763.46
  138  137  140    2    109.60   450.00
  139  137  140    2    109.50   520.00
  137  139  153    2    109.50   450.00
  137  140  141    2    109.60   450.00
  137  140  142    2    109.00  1680.51
  137  140  143    2    111.00   530.00
  141  140  142    2    110.30   524.00
  141  140  143    2    110.30   524.00
  142  140  143    2    106.00  1733.55
  140  143  144    2    109.50   450.00
  135  145  146    2    109.00  1680.51
  135  145  147    2    111.00   530.00
  135  145  149    2    109.50   520.00
  146  145  147    2    109.00  1680.51
  146  145  149    2    111.00   530.00
  147  145  149    2    109.50   520.00
  145  147  148    2    109.50   450.00
  145  149  150    2    109.00  1680.51
  145  149  151    2    111.00   530.00
  145  149  153    2    109.50   520.00
  150  149  151    2    108.53   443.00
  150  149  153    2    108.00   465.00
  151  149  153    2    111.00   530.00
  149  151  152    2    116.00   465.00
  149  151  292    2    122.00   700.00
  152  151  292    2    120.00   390.00
  139  153  149    2    111.00   530.00
  139  153  154    2    110.30   524.00
  139  153  155    2    101.00  2076.33
  149  153  154    2    113.00   545.00
  149  153  155    2    109.50   520.00
  154  153  155    2    113.00   545.00
  153  155  156    2    109.50   450.00
  155  156  157    2    111.40   532.00
  155  156  158    2    109.50   520.00
  155  156  166    2    109.50   520.00
  157  156  158    2    110.00  4763.46
  157  156  166    2    110.00  4763.46
  158  156  166    2    109.50   520.00
  156  158  159    2    110.30   524.00
  156  158  160    2    109.50   520.00
  156  158  161    2    111.00   530.00
  159  158  160    2    110.00  4763.46
  159  158  161    2    109.60   450.00
  160  158  161    2    109.50   520.00
  158  160  174    2    109.50   450.00
  158  161  162    2    109.60   450.00
  158  161  163    2    109.00  1680.51
  158  161  164    2    111.00   530.00
  162  161  163    2    110.30   524.00
  162  161  164    2    110.30   524.00
  163  161  164    2    106.00  1733.55
  161  164  165    2    109.50   450.00
  156  166  167    2    109.00  1680.51
  156  166  168    2    111.00   530.00
  156  166  170    2    109.50   520.00
  167  166  168    2    109.00  1680.51
  167  166  170    2    111.00   530.00
  168  166  170    2    109.50   520.00
  166  168  169    2    109.50   450.00
  166  170  171    2    109.00  1680.51
  166  170  172    2    111.00   530.00
  166  170  174    2    109.50   520.00
  171  170  172    2    108.53   443.00
  171  170  174    2    108.00   465.00
  172  170  174    2    111.00   530.00
  170  172  173    2    116.00   465.00
  170  172  286    2    122.00   700.00
  173  172  286    2    120.00   390.00
  160  174  170    2    111.00   530.00
  160  174  175    2    110.30   524.00
  160  174  176    2    101.00  2076.33
  170  174  175    2    113.00   545.00
  170  174  176    2    109.50   520.00
  175  174  176    2    113.00   545.00
  174  176  177    2    109.50   450.00
  176  177  178    2    111.40   532.00
  176  177  179    2    109.50   520.00
  176  177  187    2    109.50   520.00
  178  177  179    2    110.00  4763.46
  178  177  187    2    110.00  4763.46
  179  177  187    2    109.50   520.00
  177  179  180    2    110.30   524.00
  177  179  181    2    109.50   520.00
  177  179  182    2    111.00   530.00
  180  179  181    2    110.00  4763.46
  180  179  182    2    109.60   450.00
  181  179  182    2    109.50   520.00
  179  181  195    2    109.50   450.00
  179  182  183    2    109.60   450.00
  179  182  184    2    109.00  1680.51
  179  182  185    2    111.00   530.00
  183  182  184    2    110.30   524.00
  183  182  185    2    110.30   524.00
  184  182  185    2    106.00  1733.55
  182  185  186    2    109.50   450.00
  177  187  188    2    109.00  1680.51
  177  187  189    2    111.00   530.00
  177  187  191    2    109.50   520.00
  188  187  189    2    109.00  1680.51
  188  187  191    2    111.00   530.00
  189  187  191    2    109.50   520.00
  187  189  190    2    109.50   450.00
  187  191  192    2    109.00  1680.51
  187  191  193    2    111.00   530.00
  187  191  195    2    109.50   520.00
  192  191  193    2    108.53   443.00
  192  191  195    2    108.00   465.00
  193  191  195    2    111.00   530.00
  191  193  194    2    116.00   465.00
  191  193  280    2    122.00   700.00
  194  193  280    2    120.00   390.00
  181  195  191    2    111.00   530.00
  181  195  196    2    110.30   524.00
  181  195  197    2    101.00  2076.33
  191  195  196    2    113.00   545.00
  191  195  197    2    109.50   520.00
  196  195  197    2    113.00   545.00
  195  197  198    2    109.50   450.00
  197  198  199    2    111.40   532.00
  197  198  200    2    109.50   520.00
  197  198  208    2    109.50   520.00
  199  198  200    2    110.00  4763.46
  199  198  208    2    110.00  4763.46
  200  198  208    2    109.50   520.00
  198  200  201    2    110.30   524.00
  198  200  202    2    109.50   520.00
  198  200  203    2    111.00   530.00
  201  200  202    2    110.00  4763.46
  201  200  203    2    109.60   450.00
  202  200  203    2    109.50   520.00
  200  202  216    2    109.50   450.00
  200  203  204    2    109.60   450.00
  200  203  205    2    109.00  1680.51
  200  203  206    2    111.00   530.00
  204  203  205    2    110.30   524.00
  204  203  206    2    110.30   524.00
  205  203  206    2    106.00  1733.55
  203  206  207    2    109.50   450.00
  198  208  209    2    109.00  1680.51
  198  208  210    2    111.00   530.00
  198  208  212    2    109.50   520.00
  209  208  210    2    109.00  1680.51
  209  208  212    2    111.00   530.00
  210  208  212    2    109.50   520.00
  208  210  211    2    109.50   450.00
  208  212  213    2    109.00  1680.51
  208  212  214    2    111.00   530.00
  208  212  216    2    109.50   520.00
  213  212  214    2    108.53   443.00
  213  212  216    2    108.00   465.00
  214  212  216    2    111.00   530.00
  212  214  215    2    116.00   465.00
  212  214  274    2    122.00   700.00
  215  214  274    2    120.00   390.00
  202  216  212    2    111.00   530.00
  202  216  217    2    110.30   524.00
  202  216  218    2    101.00  2076.33
  212  216  217    2    113.00   545.00
  212  216  218    2    109.50   520.00
  217  216  218    2    113.00   545.00
  216  218  219    2    109.50   450.00
  218  219  220    2    111.40   532.00
  218  219  221    2    109.50   520.00
  218  219  229    2    109.50   520.00
  220  219  221    2    110.00  4763.46
  220  219  229    2    110.00  4763.46
  221  219  229    2    109.50   520.00
  219  221  222    2    110.30   524.00
  219  221  223    2    109.50   520.00
  219  221  224    2    111.00   530.00
  222  221  223    2    110.00  4763.46
  222  221  224    2    109.60   450.00
  223  221  224    2    109.50   520.00
  221  223  237    2    109.50   450.00
  221  224  225    2    109.60   450.00
  221  224  226    2    109.00  1680.51
  221  224  227    2    111.00   530.00
  225  224  226    2    110.30   524.00
  225  224  227    2    110.30   524.00
  226  224  227    2    106.00  1733.55
  224  227  228    2    109.50   450.00
  219  229  230    2    109.00  1680.51
  219  229  231    2    111.00   530.00
  219  229  233    2    109.50   520.00
  230  229  231    2    109.00  1680.51
  230  229  233    2    111.00   530.00
  231  229  233    2    109.50   520.00
  229  231  232    2    109.50   450.00
  229  233  234    2    109.00  1680.51
  229  233  235    2    111.00   530.00
  229  233  237    2    109.50   520.00
  234  233  235    2    108.53   443.00
  234  233  237    2    108.00   465.00
  235  233  237    2    111.00   530.00
  233  235  236    2    116.00   465.00
  233  235  268    2    122.00   700.00
  236  235  268    2    120.00   390.00
  223  237  233    2    111.00   530.00
  223  237  238    2    110.30   524.00
  223  237  239    2    101.00  2076.33
  233  237  238    2    113.00   545.00
  233  237  239    2    109.50   520.00
  238  237  239    2    113.00   545.00
  237  239  240    2    109.50   450.00
  239  240  241    2    111.40   532.00
  239  240  242    2    109.50   520.00
  239  240  250    2    109.50   520.00
  241  240  242    2    110.00  4763.46
  241  240  250    2    110.00  4763.46
  242  240  250    2    111.00   530.00
  240  242  243    2    109.60   450.00
  240  242  244    2    109.50   520.00
  240  242  245    2    111.00   530.00
  243  242  244    2    110.00  4763.46
  243  242  245    2    109.60   450.00
  244  242  245    2    109.50   520.00
  242  244  258    2    109.50   450.00
  242  245  246    2    109.50   285.00
  242  245  247    2    109.00  1680.51
  242  245  248    2    111.00   530.00
  246  245  247    2    110.30   524.00
  246  245  248    2    110.30   524.00
  247  245  248    2    106.00  1733.55
  245  248  249    2    109.50   450.00
  240  250  251    2    109.50   285.00
  240  250  252    2    111.00   530.00
  240  250  254    2    109.50   520.00
  251  250  252    2    109.00  1680.51
  251  250  254    2    111.00   530.00
  252  250  254    2    109.50   520.00
  250  252  253    2    109.50   450.00
  250  254  255    2    108.53   443.00
  250  254  256    2    115.00   610.00
  250  254  258    2    109.50   520.00
  255  254  256    2    108.53   443.00
  255  254  258    2    107.00  2726.16
  256  254  258    2    111.00   530.00
  254  256  257    2    116.00   465.00
  254  256  262    2    121.00   685.00
  257  256  262    2    120.00   390.00
  244  258  254    2    109.50   520.00
  244  258  259    2    111.00   530.00
  244  258  260    2    103.00   420.00
  254  258  259    2    113.00   545.00
  254  258  260    2    115.00   610.00
  259  258  260    2    107.00  2726.16
  258  260  261    2    109.50   450.00
  256  262  263    2    124.00   730.00
  256  262  264    2    120.00   560.00
  263  262  264    2    121.00   685.00
  262  264  265    2    110.30   524.00
  262  264  266    2    110.30   524.00
  262  264  267    2    110.30   524.00
  265  264  266    2    109.00  1680.51
  265  264  267    2    109.00  1680.51
  266  264  267    2    109.00  1680.51
  235  268  269    2    124.00   730.00
  235  268  270    2    115.00   610.00
  269  268  270    2    121.00   685.00
  268  270  271    2    110.30   524.00
  268  270  272    2    110.30   524.00
  268  270  273    2    110.30   524.00
  271  270  272    2    109.00  1680.51
  271  270  273    2    109.00  1680.51
  272  270  273    2    109.00  1680.51
  214  274  275    2    124.00   730.00
  214  274  276    2    115.00   610.00
  275  274  276    2    121.00   685.00
  274  276  277    2    111.00   530.00
  274  276  278    2    111.00   530.00
  274  276  279    2    111.00   530.00
  277  276  278    2    109.00  1680.51
  277  276  279    2    109.00  1680.51
  278  276  279    2    109.00  1680.51
  193  280  281    2    124.00   730.00
  193  280  282    2    115.00   610.00
  281  280  282    2    121.00   685.00
  280  282  283    2    111.00   530.00
  280  282  284    2    111.00   530.00
  280  282  285    2    111.00   530.00
  283  282  284    2    109.00  1680.51
  283  282  285    2    109.00  1680.51
  284  282  285    2    109.00  1680.51
  172  286  287    2    124.00   730.00
  172  286  288    2    115.00   610.00
  287  286  288    2    121.00   685.00
  286  288  289    2    108.53   443.00
  286  288  290    2    108.53   443.00
  286  288  291    2    108.53   443.00
  289  288  290    2    109.00  1680.51
  289  288  291    2    109.00  1680.51
  290  288  291    2    109.00  1680.51
  151  292  293    2    124.00   730.00
  151  292  294    2    115.00   610.00
  293  292  294    2    121.00   685.00
  292  294  295    2    111.00   530.00
  292  294  296    2    111.00   530.00
  292  294  297    2    111.00   530.00
  295  294  296    2    109.00  1680.51
  295  294  297    2    109.00  1680.51
  296  294  297    2    109.00  1680.51
  130  298  299    2    124.00   730.00
  130  298  300    2    115.00   610.00
  299  298  300    2    121.00   685.00
  298  300  301    2    108.53   443.00
  298  300  302    2    108.53   443.00
  298  300  303    2    108.53   443.00
  301  300  302    2    109.00  1680.51
  301  300  303    2    109.00  1680.51
  302  300  303    2    109.00  1680.51
  109  304  305    2    124.00   730.00
  109  304  306    2    115.00   610.00
  305  304  306    2    121.00   685.00
  304  306  307    2    108.53   443.00
  304  306  308    2    108.53   443.00
  304  306  309    2    108.53   443.00
  307  306  308    2    109.00  1680.51
  307  306  309    2    109.00  1680.51
  308  306  309    2    109.00  1680.51
   88  310  311    2    124.00   730.00
   88  310  312    2    115.00   610.00
  311  310  312    2    121.00   685.00
  310  312  313    2    110.30   524.00
  310  312  314    2    110.30   524.00
  310  312  315    2    110.30   524.00
  313  312  314    2    109.00  1680.51
  313  312  315    2    109.00  1680.51
  314  312  315    2    109.00  1680.51
   67  316  317    2    124.00   730.00
   67  316  318    2    115.00   610.00
  317  316  318    2    121.00   685.00
  316  318  319    2    111.00   530.00
  316  318  320    2    111.00   530.00
  316  318  321    2    111.00   530.00
  319  318  320    2    109.00  1680.51
  319  318  321    2    109.00  1680.51
  320  318  321    2    109.00  1680.51
   46  322  323    2    124.00   730.00
   46  322  324    2    115.00   610.00
  323  322  324    2    121.00   685.00
  322  324  325    2    111.00   530.00
  322  324  326    2    111.00   530.00
  322  324  327    2    111.00   530.00
  325  324  326    2    109.00  1680.51
  325  324  327    2    109.00  1680.51
  326  324  327    2    109.00  1680.51
[ dihedrals ]
; GROMOS improper dihedrals
;  ai   aj   ak   al  funct   angle     fc
    5    2    7    6    2      0.00   167.36
    7    9    5    8    2      0.00   167.36
  322  324   46  323    2      0.00   167.36
   46   44  322   47    2      0.00   167.36
  316  318   67  317    2      0.00   167.36
   67   65  316   68    2      0.00   167.36
  310  312   88  311    2      0.00   167.36
   88   86  310   89    2      0.00   167.36
  304  306  109  305    2      0.00   167.36
  109  107  304  110    2      0.00   167.36
  298  300  130  299    2      0.00   167.36
  130  128  298  131    2      0.00   167.36
  292  294  151  293    2      0.00   167.36
  151  149  292  152    2      0.00   167.36
  286  288  172  287    2      0.00   167.36
  172  170  286  173    2      0.00   167.36
  280  282  193  281    2      0.00   167.36
  193  191  280  194    2      0.00   167.36
  274  276  214  275    2      0.00   167.36
  214  212  274  215    2      0.00   167.36
  268  270  235  269    2      0.00   167.36
  235  233  268  236    2      0.00   167.36
  262  264  256  263    2      0.00   167.36
  256  254  262  257    2      0.00   167.36
[ dihedrals ]
;  ai   aj   ak   al  funct    ph0      cp     mult
    3    2    5    7    1    180.00     1.00    6
    2    5    7    9    1    180.00    33.50    2
    5    7    9   11    1      0.00     3.77    6
   26    9   11   13    1      0.00     5.92    3
   11    9   26   22    1      0.00     5.92    3
    9   11   13   30    1      0.00     1.26    3
    9   11   14   15    1      0.00     1.26    3
   11   13   30   40    1    180.00     1.00    3
   11   14   15   22    1      0.00     1.26    3
   22   15   17   20    1      0.00     5.92    3
   17   15   22   26    1      0.00     5.92    3
   15   17   20   21    1      0.00     1.26    3
   26   22   24   25    1      0.00     1.26    3
   15   22   26    9    1      0.00     5.92    3
    9   26   28   29    1      0.00     1.26    3
   13   30   32   35    1      0.00     5.92    3
   13   30   40   44    1      0.00     5.92    3
   30   32   34   48    1      0.00     1.26    3
   30   32   35   38    1      0.00     5.92    3
   32   34   48   44    1      0.00     1.26    3
   32   35   38   39    1      0.00     1.26    3
   44   40   42   43    1      0.00     1.26    3
   30   40   44   48    1      0.00     5.92    3
   48   44   46  322    1    180.00     1.00    6
   40   44   48   50    1      0.00     5.92    3
   44   46  322  324    1    180.00    33.50    2
   44   48   50   51    1      0.00     1.26    3
   48   50   51   61    1    180.00     1.00    3
   50   51   53   56    1      0.00     5.92    3
   50   51   61   65    1      0.00     5.92    3
   51   53   55   69    1      0.00     1.26    3
   51   53   56   59    1      0.00     5.92    3
   53   55   69   65    1      0.00     1.26    3
   53   56   59   60    1      0.00     1.26    3
   65   61   63   64    1      0.00     1.26    3
   51   61   65   69    1      0.00     5.92    3
   69   65   67  316    1    180.00     1.00    6
   61   65   69   71    1      0.00     5.92    3
   65   67  316  318    1    180.00    33.50    2
   65   69   71   72    1      0.00     1.26    3
   69   71   72   82    1    180.00     1.00    3
   71   72   74   77    1      0.00     5.92    3
   71   72   82   86    1      0.00     5.92    3
   72   74   76   90    1      0.00     1.26    3
   72   74   77   80    1      0.00     5.92    3
   74   76   90   86    1      0.00     1.26    3
   74   77   80   81    1      0.00     1.26    3
   86   82   84   85    1      0.00     1.26    3
   72   82   86   90    1      0.00     5.92    3
   90   86   88  310    1    180.00     1.00    6
   82   86   90   92    1      0.00     5.92    3
   86   88  310  312    1    180.00    33.50    2
   86   90   92   93    1      0.00     1.26    3
   90   92   93  103    1    180.00     1.00    3
   92   93   95   98    1      0.00     5.92    3
   92   93  103  107    1      0.00     5.92    3
   93   95   97  111    1      0.00     1.26    3
   93   95   98  101    1      0.00     5.92    3
   95   97  111  107    1      0.00     1.26    3
   95   98  101  102    1      0.00     1.26    3
  107  103  105  106    1      0.00     1.26    3
   93  103  107  111    1      0.00     5.92    3
  111  107  109  304    1    180.00     1.00    6
  103  107  111  113    1      0.00     5.92    3
  107  109  304  306    1    180.00    33.50    2
  107  111  113  114    1      0.00     1.26    3
  111  113  114  124    1    180.00     1.00    3
  113  114  116  119    1      0.00     5.92    3
  113  114  124  128    1      0.00     5.92    3
  114  116  118  132    1      0.00     1.26    3
  114  116  119  122    1      0.00     5.92    3
  116  118  132  128    1      0.00     1.26    3
  116  119  122  123    1      0.00     1.26    3
  128  124  126  127    1      0.00     1.26    3
  114  124  128  132    1      0.00     5.92    3
  132  128  130  298    1    180.00     1.00    6
  124  128  132  134    1      0.00     5.92    3
  128  130  298  300    1    180.00    33.50    2
  128  132  134  135    1      0.00     1.26    3
  132  134  135  145    1    180.00     1.00    3
  134  135  137  140    1      0.00     5.92    3
  134  135  145  149    1      0.00     5.92    3
  135  137  139  153    1      0.00     1.26    3
  135  137  140  143    1      0.00     5.92    3
  137  139  153  149    1      0.00     1.26    3
  137  140  143  144    1      0.00     1.26    3
  149  145  147  148    1      0.00     1.26    3
  135  145  149  153    1      0.00     5.92    3
  153  149  151  292    1    180.00     1.00    6
  145  149  153  155    1      0.00     5.92    3
  149  151  292  294    1    180.00    33.50    2
  149  153  155  156    1      0.00     1.26    3
  153  155  156  166    1    180.00     1.00    3
  155  156  158  161    1      0.00     5.92    3
  155  156  166  170    1      0.00     5.92    3
  156  158  160  174    1      0.00     1.26    3
  156  158  161  164    1      0.00     5.92    3
  158  160  174  170    1      0.00     1.26    3
  158  161  164  165    1      0.00     1.26    3
  170  166  168  169    1      0.00     1.26    3
  156  166  170  174    1      0.00     5.92    3
  174  170  172  286    1    180.00     1.00    6
  166  170  174  176    1      0.00     5.92    3
  170  172  286  288    1    180.00    33.50    2
  170  174  176  177    1      0.00     1.26    3
  174  176  177  187    1    180.00     1.00    3
  176  177  179  182    1      0.00     5.92    3
  176  177  187  191    1      0.00     5.92    3
  177  179  181  195    1      0.00     1.26    3
  177  179  182  185    1      0.00     5.92    3
  179  181  195  191    1      0.00     1.26    3
  179  182  185  186    1      0.00     1.26    3
  191  187  189  190    1      0.00     1.26    3
  177  187  191  195    1      0.00     5.92    3
  195  191  193  280    1    180.00     1.00    6
  187  191  195  197    1      0.00     5.92    3
  191  193  280  282    1    180.00    33.50    2
  191  195  197  198    1      0.00     1.26    3
  195  197  198  208    1    180.00     1.00    3
  197  198  200  203    1      0.00     5.92    3
  197  198  208  212    1      0.00     5.92    3
  198  200  202  216    1      0.00     1.26    3
  198  200  203  206    1      0.00     5.92    3
  200  202  216  212    1      0.00     1.26    3
  200  203  206  207    1      0.00     1.26    3
  212  208  210  211    1      0.00     1.26    3
  198  208  212  216    1      0.00     5.92    3
  216  212  214  274    1    180.00     1.00    6
  208  212  216  218    1      0.00     5.92    3
  212  214  274  276    1    180.00    33.50    2
  212  216  218  219    1      0.00     1.26    3
  216  218  219  229    1    180.00     1.00    3
  218  219  221  224    1      0.00     5.92    3
  218  219  229  233    1      0.00     5.92    3
  219  221  223  237    1      0.00     1.26    3
  219  221  224  227    1      0.00     5.92    3
  221  223  237  233    1      0.00     1.26    3
  221  224  227  228    1      0.00     1.26    3
  233  229  231  232    1      0.00     1.26    3
  219  229  233  237    1      0.00     5.92    3
  237  233  235  268    1    180.00     1.00    6
  229  233  237  239    1      0.00     5.92    3
  233  235  268  270    1    180.00    33.50    2
  233  237  239  240    1      0.00     1.26    3
  237  239  240  250    1    180.00     1.00    3
  239  240  242  245    1      0.00     5.92    3
  239  240  250  254    1      0.00     5.92    3
  240  242  244  258    1      0.00     1.26    3
  240  242  245  248    1      0.00     5.92    3
  242  244  258  254    1      0.00     1.26    3
  242  245  248  249    1      0.00     1.26    3
  254  250  252  253    1      0.00     1.26    3
  240  250  254  258    1      0.00     5.92    3
  258  254  256  262    1      0.00     3.77    6
  250  254  258  260    1      0.00     5.92    3
  254  256  262  264    1    180.00    33.50    2
  254  258  260  261    1      0.00     1.26    3
  256  262  264  265    1    180.00     1.00    6
  235  268  270  271    1    180.00     1.00    6
  214  274  276  277    1    180.00     1.00    6
  193  280  282  283    1    180.00     1.00    6
  172  286  288  289    1    180.00     1.00    6
  151  292  294  295    1    180.00     1.00    6
  130  298  300  301    1    180.00     1.00    6
  109  304  306  307    1    180.00     1.00    6
   88  310  312  313    1    180.00     1.00    6
   67  316  318  319    1    180.00     1.00    6
   46  322  324  325    1    180.00     1.00    6
[ exclusions ]
;  ai   aj  funct  ;  GROMOS 1-4 exclusions
