;----------------------------TITLE -----------------------------------------------------------------------------------------
;   Cholesterol
;
; This file was generated at 15:15 on 2019-01-09 by
;
;                  Automatic Topology Builder  
;
;                   REVISION 2018-12-20 13:58:23
;---------------------------------------------------------------------------------------------------------------------------
; Authors     : Martin Stroet, Bertrand Caron, Alpeshkumar K. Malde, Thomas Lee, Alan E. Mark
;
; Institute   : Molecular Dynamics group, 
;               School of Chemistry and Molecular Biosciences (SCMB),
;               The University of Queensland, QLD 4072, Australia
; URL         : https://atb.uq.edu.au
; Citations   : 1. Malde AK, Zuo L, Breeze M, Stroet M, Poger D, Nair PC, Oostenbrink C, Mark AE.
;                  An Automated force field Topology Builder (ATB) and repository: version 1.0.
;                  Journal of Chemical Theory and Computation, 2011, 7, 4026-4037.
;               2. Stroet M, Caron B, Visscher K, Geerke D, Malde AK, Mark AE.
;                  Automated Topology Builder version 3.0: Prediction of solvation free enthalpies in water and hexane.
;                  DOI:10.1021/acs.jctc.8b00768
;
; Disclaimer  : 
;      While every effort has been made to ensure the accuracy and validity of parameters provided below
;      the assignment of parameters is being based on an automated procedure combining data provided by a
;      given user as well as calculations performed using third party software. They are provided as a guide.
;      The authors of the ATB cannot guarantee that the parameters are complete or that the parameters provided
;      are appropriate for use in any specific application. Users are advised to treat these parameters with discretion
;      and to perform additional validation tests for their specific application if required. Neither the authors
;      of the ATB or The University of Queensland except any responsibly for how the parameters may be used.
;
; Release notes and warnings: 
;  (1) The topology is based on a set of atomic coordinates and other data provided by the user after
;      after quantum mechanical optimization of the structure using different levels of theory depending on
;      the nature of the molecule.
;  (2) In some cases the automatic bond, bond angle and dihedral type assignment is ambiguous.
;      In these cases alternative type codes are provided at the end of the line.
;  (3) While bonded parameters are taken where possible from the nominated force field non-standard bond, angle and dihedral
;      type code may be incorporated in cases where an exact match could not be found. These are marked as "non-standard"
;      or "uncertain" in comments.
;  (4) In some cases it is not possible to assign an appropriate parameter automatically. "%%" is used as a place holder
;      for those fields that could not be determined automatically. The parameters in these fields must be assigned manually
;      before the file can be used.
;---------------------------------------------------------------------------------------------------------------------------
; Input Structure : FFX9
; Output          : UNITED ATOM topology
;	Use in conjunction with the corresponding united atom PDB file.
;---------------------------------------------------------------------------------------------------------------------------
; Citing this topology file
; ATB molid: 329827
; ATB Topology Hash: 2b4f5
;---------------------------------------------------------------------------------------------------------------------------
; Initial Guess Topology Generation:
; The topology was generated from AM1 optimized geometry and MOPAC charges.
; Bonded and van der Waals parameters were taken from the GROMOS 54A7 parameter set.
;---------------------------------------------------------------------------------------------------------------------------
;
;
[ moleculetype ]
; Name   nrexcl
FFX9     3
[ atoms ]
;  nr  type  resnr  resid  atom  cgnr  charge    mass
    1     H    1    FFX9     H1    1    0.198   1.0080
    2     O    1    FFX9     O1    2   -0.330  15.9994
    3     C    1    FFX9     C3    3    0.034  12.0110
    4    HC    1    FFX9     HC    4    0.075   1.0080
    5   CH2    1    FFX9     C4    5    0.078  14.0270
    6     C    1    FFX9     C5    6   -0.102  12.0110
    7     C    1    FFX9    C10    7   -0.004  12.0110
    8   CH3    1    FFX9    C19    8    0.029  15.0350
    9   CH1    1    FFX9     C9    9   -0.001  13.0190
   10   CH2    1    FFX9    C11   10    0.006  14.0270
   11   CH2    1    FFX9    C12   11    0.017  14.0270
   12     C    1    FFX9    C13   12   -0.044  12.0110
   13   CH3    1    FFX9    C18   13    0.024  15.0350
   14   CH1    1    FFX9    C17   14   -0.007  13.0190
   15   CH1    1    FFX9    C20   15   -0.006  13.0190
   16   CH2    1    FFX9    C22   16    0.004  14.0270
   17   CH2    1    FFX9    C23   17   -0.000  14.0270
   18   CH2    1    FFX9    C24   18    0.004  14.0270
   19   CH1    1    FFX9    C25   19   -0.021  13.0190
   20   CH3    1    FFX9    C27   20    0.008  15.0350
   21   CH3    1    FFX9    C26   21    0.009  15.0350
   22   CH3    1    FFX9    C21   22    0.010  15.0350
   23   CH2    1    FFX9    C16   23    0.005  14.0270
   24   CH2    1    FFX9    C15   24    0.009  14.0270
   25   CH1    1    FFX9    C14   25   -0.019  13.0190
   26   CH1    1    FFX9     C8   26    0.012  13.0190
   27   CH2    1    FFX9     C7   27    0.051  14.0270
   28     C    1    FFX9     C6   28   -0.162  12.0110
   29    HC    1    FFX9    HC1   29    0.121   1.0080
   30   CH2    1    FFX9     C1   30    0.022  14.0270
   31   CH2    1    FFX9     C2   31   -0.020  14.0270
; total charge of the molecule:  -0.000
[ bonds ]
;  ai   aj  funct   c0         c1
    1    2    2   0.0971   7.9547e+06
    2    3    2   0.1430   8.1800e+06
    3    4    2   0.1130   7.0483e+06
    3    5    2   0.1530   7.1500e+06
    3   31    2   0.1520   5.4300e+06
    5    6    2   0.1490   1.4189e+07
    6    7    2   0.1510   3.7279e+06
    6   28    2   0.1340   1.0500e+07
    7    8    2   0.1530   7.1500e+06
    7    9    2   0.1540   4.2166e+06
    7   30    2   0.1530   7.1500e+06
    9   10    2   0.1520   5.4300e+06
    9   26    2   0.1530   7.1500e+06
   10   11    2   0.1520   5.4300e+06
   11   12    2   0.1520   5.4300e+06
   12   13    2   0.1520   5.4300e+06
   12   14    2   0.1540   4.2166e+06
   12   25    2   0.1540   4.2166e+06
   14   15    2   0.1520   5.4300e+06
   14   23    2   0.1540   4.2166e+06
   15   16    2   0.1530   7.1500e+06
   15   22    2   0.1520   5.4300e+06
   16   17    2   0.1520   5.4300e+06
   17   18    2   0.1520   5.4300e+06
   18   19    2   0.1530   7.1500e+06
   19   20    2   0.1520   5.4300e+06
   19   21    2   0.1520   5.4300e+06
   23   24    2   0.1530   7.1500e+06
   24   25    2   0.1520   5.4300e+06
   25   26    2   0.1520   5.4300e+06
   26   27    2   0.1520   5.4300e+06
   27   28    2   0.1480   5.7300e+06
   28   29    2   0.1100   1.2100e+07
   30   31    2   0.1520   5.4300e+06
[ pairs ]
;  ai   aj  funct  ;  all 1-4 pairs but the ones excluded in GROMOS itp
    3    7    1
    3   28    1
    5    8    1
    5    9    1
    5   27    1
    5   29    1
    5   30    1
    6   10    1
    6   26    1
    6   31    1
   28   30    1
   26   29    1
   26   30    1
    9   12    1
    9   24    1
    9   28    1
    9   31    1
    7   11    1
    7   25    1
    7   27    1
    7   29    1
   10   13    1
   10   14    1
   10   25    1
   10   27    1
   10   30    1
   11   15    1
   11   23    1
   11   24    1
   11   26    1
   12   16    1
   12   22    1
   12   27    1
   25   28    1
   24   27    1
   23   26    1
   14   17    1
   14   26    1
   13   15    1
   13   23    1
   13   24    1
   13   26    1
    8   10    1
    8   26    1
    8   28    1
    8   31    1
   15   18    1
   15   24    1
   15   25    1
   22   23    1
   16   19    1
   16   23    1
   17   20    1
   17   21    1
   17   22    1
    2    6    1
    2   30    1
    1    4    1
    1    5    1
    1   31    1
    4    6    1
    4   30    1
[ angles ]
;  ai   aj   ak  funct   angle     fc
    1    2    3    2    109.50   450.00
    2    3    4    2    109.00  1680.51
    2    3    5    2    109.50   520.00
    2    3   31    2    111.00   530.00
    4    3    5    2    110.00   285.00
    4    3   31    2    109.60   450.00
    5    3   31    2    111.00   530.00
    3    5    6    2    111.00   530.00
    5    6    7    2    120.00   560.00
    5    6   28    2    120.00   560.00
    7    6   28    2    126.00   640.00
    6    7    8    2    109.50   520.00
    6    7    9    2    111.00   530.00
    6    7   30    2    109.50   520.00
    8    7    9    2    111.00   530.00
    8    7   30    2    109.50   520.00
    9    7   30    2    109.50   520.00
    7    9   10    2    111.00   530.00
    7    9   26    2    111.00   530.00
   10    9   26    2    111.00   530.00
    9   10   11    2    111.00   530.00
   10   11   12    2    111.00   530.00
   11   12   13    2    111.00   530.00
   11   12   14    2    120.00   560.00
   11   12   25    2    109.50   520.00
   13   12   14    2    109.50   520.00
   13   12   25    2    111.00   530.00
   14   12   25    2    101.00  2076.33
   12   14   15    2    120.00   560.00
   12   14   23    2    104.00   490.00
   15   14   23    2    111.00   530.00
   14   15   16    2    109.50   520.00
   14   15   22    2    111.00   530.00
   16   15   22    2    109.50   520.00
   15   16   17    2    111.00   530.00
   16   17   18    2    111.00   530.00
   17   18   19    2    111.00   530.00
   18   19   20    2    111.00   530.00
   18   19   21    2    111.00   530.00
   20   19   21    2    109.50   520.00
   14   23   24    2    109.50   520.00
   23   24   25    2    104.00   490.00
   12   25   24    2    104.00   490.00
   12   25   26    2    111.00   530.00
   24   25   26    2    120.00   560.00
    9   26   25    2    109.50   520.00
    9   26   27    2    109.50   520.00
   25   26   27    2    109.50   520.00
   26   27   28    2    111.00   530.00
    6   28   27    2    126.00   640.00
    6   28   29    2    120.00   505.00
   27   28   29    2    115.00    50.00
    7   30   31    2    111.00   530.00
    3   31   30    2    111.00   530.00
[ dihedrals ]
; GROMOS improper dihedrals
;  ai   aj   ak   al  funct   angle     fc
    6    5    7   28    2      0.00   167.36
   28    6   27   29    2      0.00   167.36
    3    5   31    2    2     35.26   334.72
   26   27    9   25    2     35.26   334.72
    9    7   26   10    2     35.26   334.72
   25   12   26   24    2     35.26   334.72
   14   12   23   15    2     35.26   334.72
   15   14   22   16    2     35.26   334.72
   19   18   21   20    2     35.26   334.72
[ dihedrals ]
;  ai   aj   ak   al  funct    ph0      cp     mult
    1    2    3   31    1      0.00     1.26    3
    3    5    6   28    1    180.00     1.00    6
    5    3   31   30    1      0.00     5.92    3
    5    6    7   30    1    180.00     1.00    6
    5    6   28   27    1    180.00     5.86    2
    6    7   30   31    1      0.00     5.92    3
    7    9   26   27    1      0.00     5.92    3
    7   30   31    3    1      0.00     5.92    3
    9   10   11   12    1      0.00     5.92    3
    9   26   27   28    1      0.00     5.92    3
   10   11   12   25    1      0.00     5.92    3
   11   12   14   23    1      0.00     5.92    3
   11   12   25   26    1      0.00     5.92    3
   12   14   15   22    1      0.00     5.92    3
   12   14   23   24    1    180.00     1.00    3
   12   25   26   27    1      0.00     5.92    3
   14   15   16   17    1      0.00     5.92    3
   14   23   24   25    1    180.00     1.00    3
   15   16   17   18    1      0.00     5.92    3
   16   17   18   19    1      0.00     5.92    3
   17   18   19   21    1    180.00     1.00    3
   23   24   25   26    1      0.00     5.92    3
   26    9   10   11    1      0.00     5.92    3
   26   27   28    6    1      0.00     1.00    6
   30    7    9   26    1      0.00     5.92    3
   31    3    5    6    1      0.00     5.92    3
[ exclusions ]
;  ai   aj  funct  ;  GROMOS 1-4 exclusions
