; adenosine_GMX.top created by acpype (v: 2023.10.27) on Mon Feb  9 17:24:46 2026

[ defaults ]
; nbfunc        comb-rule       gen-pairs       fudgeLJ fudgeQQ
1               2               yes             0.5     0.8333333333

; Include adenosine_GMX.itp topology
#include "adenosine_GMX.itp"

; Ligand position restraints
#ifdef POSRES_LIG
#include "posre_adenosine.itp"
#endif

[ system ]
 adenosine

[ molecules ]
; Compound        nmols
 adenosine        1     
