60961
    32
   2.0000000  -0.5200000  -0.9520000   1.2080000   2.2650000   1.1770000
   3.4010000   2.1350000  -0.4230000   3.7890000  -2.6030000  -0.3840000
  -0.2130000  -0.2590000  -0.1380000  -1.6400000  -1.8910000   0.3910000
  -1.7850000   1.5470000  -0.5510000  -4.0890000   0.8120000  -0.2210000
  -4.6440000  -1.4230000   0.4290000   1.7170000   0.9880000   0.8520000
   1.0580000   0.4150000  -0.3940000   3.1740000   1.0170000   0.4350000
   3.3040000  -0.2640000  -0.3830000   3.7050000  -1.4670000   0.4590000
  -1.4640000   0.2870000  -0.2200000  -0.3730000  -1.5690000   0.2320000
  -2.3330000  -0.7400000   0.1120000  -3.6920000  -0.4420000   0.1040000
  -3.1250000   1.7150000  -0.5240000   1.5810000   0.3260000   1.7150000
   0.8620000   1.1830000  -1.1520000   3.8660000   1.0960000   1.2780000
   3.9970000  -0.1520000  -1.2250000   2.9710000  -1.6860000   1.2400000
   4.6820000  -1.3130000   0.9270000   1.3810000   2.8580000   0.4260000
   4.3300000   2.0980000  -0.7090000   0.4630000  -2.2410000   0.3770000
   2.9170000  -2.7280000  -0.7950000  -3.4790000   2.7080000  -0.7800000
  -4.3500000  -2.3600000   0.6730000  -5.6250000  -1.1820000   0.4170000
