; adenosine_GMX_OPLS.itp created by acpype (v: 2023.10.27) on Mon Feb  9 17:24:46 2026

; For OPLS atomtypes manual fine tuning
; AC_at:OPLS_at:OPLScode: Possible_Alternatives (see ffoplsaa.atp and ffoplsaanb.itp)
; os:x:opls_x: []
; oh:OH:opls_154: ['167']
; na:NA:opls_503: ['512']
; nc:NB:opls_511: []
; nb:x:opls_x: []
; nv:x:opls_x: []
; c5:x:opls_x: []
; c3:CT:opls_135: ['136', '137', '149', '157', '158', '206', '209', '210', '223B', '224B', '245', '246', '274', '283', '284', '285', '292', '292B', '293B', '296', '307', '308', '505']
; ca:CA:opls_145: ['166', '501', '502']
; cd:C*:opls_500: ['506', '507', '508', '514']
; h1:HC:opls_140: []
; h2:x:opls_x: []
; ho:HO:opls_155: ['168']
; h5:HA:opls_146: []
; hn:H:opls_240: ['241', '290', '301', '304', '310', '504', '513']

[ moleculetype ]
;name            nrexcl
 adenosine        3

[ atoms ]
;   nr  type  resi  res  atom  cgnr     charge      mass       ; qtot   bond_type
     1 opls_x     1    A1   O4*    1    -0.412600      0.00000 ; qtot -0.413  x   
     2 opls_154     1    A1   O2*    2    -0.562800     15.99940 ; qtot -0.975  OH  
     3 opls_154     1    A1   O3*    3    -0.586800     15.99940 ; qtot -1.562  OH  
     4 opls_154     1    A1   O5*    4    -0.588800     15.99940 ; qtot -2.151  OH  
     5 opls_503     1    A1    N9    5    -0.284000     14.00670 ; qtot -2.435  NA  
     6 opls_511     1    A1    N7    6    -0.532100     14.00670 ; qtot -2.967  NB  
     7 opls_x     1    A1    N3    7    -0.734000      0.00000 ; qtot -3.701  x   
     8 opls_x     1    A1    N1    8    -0.795000      0.00000 ; qtot -4.496  x   
     9 opls_x     1    A1    N6    9    -0.963500      0.00000 ; qtot -5.460  x   
    10 opls_x     1    A1   C2*   10     0.130100      0.00000 ; qtot -5.330  x   
    11 opls_x     1    A1   C1*   11     0.210800      0.00000 ; qtot -5.119  x   
    12 opls_x     1    A1   C3*   12     0.080100      0.00000 ; qtot -5.039  x   
    13 opls_x     1    A1   C4*   13     0.047100      0.00000 ; qtot -4.992  x   
    14 opls_135     1    A1   C5*   14     0.118400     12.01100 ; qtot -4.873  CT  
    15 opls_145     1    A1    C4   15     0.477800     12.01100 ; qtot -4.395  CA  
    16 opls_500     1    A1    C8   16     0.394700     12.01100 ; qtot -4.001  C*  
    17 opls_145     1    A1    C5   17    -0.240200     12.01100 ; qtot -4.241  CA  
    18 opls_145     1    A1    C6   18     0.767200     12.01100 ; qtot -3.474  CA  
    19 opls_145     1    A1    C2   19     0.691900     12.01100 ; qtot -2.782  CA  
    20 opls_140     1    A1   H2*   20     0.101700      1.00800 ; qtot -2.680  HC  
    21 opls_x     1    A1   H1*   21     0.135700      0.00000 ; qtot -2.544  x   
    22 opls_140     1    A1   H3*   22     0.060700      1.00800 ; qtot -2.484  HC  
    23 opls_140     1    A1   H4*   23     0.095700      1.00800 ; qtot -2.388  HC  
    24 opls_140     1    A1  H5*1   24     0.050200      1.00800 ; qtot -2.338  HC  
    25 opls_140     1    A1  H5*2   25     0.050200      1.00800 ; qtot -2.287  HC  
    26 opls_155     1    A1    H7   26     0.427000      1.00800 ; qtot -1.860  HO  
    27 opls_155     1    A1    H9   27     0.419000      1.00800 ; qtot -1.441  HO  
    28 opls_146     1    A1    H8   28     0.066800      1.00800 ; qtot -1.375  HA  
    29 opls_155     1    A1   H5*   29     0.419000      1.00800 ; qtot -0.956  HO  
    30 opls_146     1    A1    H2   30     0.054100      1.00800 ; qtot -0.902  HA  
    31 opls_240     1    A1   H61   31     0.450800      1.00800 ; qtot -0.451  H   
    32 opls_240     1    A1   H62   32     0.450800      1.00800 ; qtot  0.000  H   

[ bonds ]
;   ai     aj funct   r             k
     1     11   1 ;    1.4346e-01    2.3063e+05 ;    O4* - C1*         x - x     
     1     13   1 ;    1.4346e-01    2.3063e+05 ;    O4* - C4*         x - x     
     2     10   1 ;    1.4194e-01    2.4241e+05 ;    O2* - C2*        OH - x     
     2     26   1 ;    9.7250e-02    4.4811e+05 ;    O2* - H7         OH - HO    
     3     12   1 ;    1.4194e-01    2.4241e+05 ;    O3* - C3*        OH - x     
     3     27   1 ;    9.7250e-02    4.4811e+05 ;    O3* - H9         OH - HO    
     4     14   1 ;    1.4242e-01    2.3861e+05 ;    O5* - C5*        OH - CT    
     4     29   1 ;    9.7250e-02    4.4811e+05 ;    O5* - H5*        OH - HO    
     5     11   1 ;    1.4571e-01    2.1790e+05 ;     N9 - C1*        NA - x     
     5     15   1 ;    1.3858e-01    2.7557e+05 ;     N9 - C4         NA - CA    
     5     16   1 ;    1.3830e-01    2.7819e+05 ;     N9 - C8         NA - C*    
     6     16   1 ;    1.3171e-01    3.4961e+05 ;     N7 - C8         NB - C*    
     6     17   1 ;    1.3852e-01    2.7614e+05 ;     N7 - C5         NB - CA    
     7     15   1 ;    1.3392e-01    3.2341e+05 ;     N3 - C4          x - CA    
     7     19   1 ;    1.3392e-01    3.2341e+05 ;     N3 - C2          x - CA    
     8     18   1 ;    1.3392e-01    3.2341e+05 ;     N1 - C6          x - CA    
     8     19   1 ;    1.3392e-01    3.2341e+05 ;     N1 - C2          x - CA    
     9     18   1 ;    1.3744e-01    2.8644e+05 ;     N6 - C6          x - CA    
     9     31   1 ;    1.0114e-01    3.9961e+05 ;     N6 - H61         x - H     
     9     32   1 ;    1.0114e-01    3.9961e+05 ;     N6 - H62         x - H     
    10     11   1 ;    1.5483e-01    1.8418e+05 ;    C2* - C1*         x - x     
    10     12   1 ;    1.5483e-01    1.8418e+05 ;    C2* - C3*         x - x     
    10     20   1 ;    1.0972e-01    2.8768e+05 ;    C2* - H2*         x - HC    
    11     21   1 ;    1.0955e-01    2.8977e+05 ;    C1* - H1*         x - x     
    12     13   1 ;    1.5483e-01    1.8418e+05 ;    C3* - C4*         x - x     
    12     22   1 ;    1.0972e-01    2.8768e+05 ;    C3* - H3*         x - HC    
    13     14   1 ;    1.5372e-01    1.9049e+05 ;    C4* - C5*         x - CT    
    13     23   1 ;    1.0972e-01    2.8768e+05 ;    C4* - H4*         x - HC    
    14     24   1 ;    1.0969e-01    2.8804e+05 ;    C5* - H5*1       CT - HC    
    14     25   1 ;    1.0969e-01    2.8804e+05 ;    C5* - H5*2       CT - HC    
    15     17   1 ;    1.3986e-01    2.9644e+05 ;     C4 - C5         CA - CA    
    16     28   1 ;    1.0821e-01    3.0695e+05 ;     C8 - H8         C* - HA    
    17     18   1 ;    1.3986e-01    2.9644e+05 ;     C5 - C6         CA - CA    
    19     30   1 ;    1.0880e-01    2.9923e+05 ;     C2 - H2         CA - HA    

[ pairs ]
;   ai     aj    funct
     1      2      1 ;    O4* - O2*   
     1      3      1 ;    O4* - O3*   
     1      4      1 ;    O4* - O5*   
     1     15      1 ;    O4* - C4    
     1     16      1 ;    O4* - C8    
     1     20      1 ;    O4* - H2*   
     1     22      1 ;    O4* - H3*   
     1     24      1 ;    O4* - H5*1  
     1     25      1 ;    O4* - H5*2  
     2      3      1 ;    O2* - O3*   
     2      5      1 ;    O2* - N9    
     2     13      1 ;    O2* - C4*   
     2     21      1 ;    O2* - H1*   
     2     22      1 ;    O2* - H3*   
     3     11      1 ;    O3* - C1*   
     3     14      1 ;    O3* - C5*   
     3     20      1 ;    O3* - H2*   
     3     23      1 ;    O3* - H4*   
     4     12      1 ;    O5* - C3*   
     4     23      1 ;    O5* - H4*   
     5     12      1 ;     N9 - C3*   
     5     18      1 ;     N9 - C6    
     5     19      1 ;     N9 - C2    
     5     20      1 ;     N9 - H2*   
     6      7      1 ;     N7 - N3    
     6      8      1 ;     N7 - N1    
     6      9      1 ;     N7 - N6    
     6     11      1 ;     N7 - C1*   
     7     11      1 ;     N3 - C1*   
     7     16      1 ;     N3 - C8    
     7     18      1 ;     N3 - C6    
     8     15      1 ;     N1 - C4    
     8     31      1 ;     N1 - H61   
     8     32      1 ;     N1 - H62   
     9     15      1 ;     N6 - C4    
     9     19      1 ;     N6 - C2    
    10     14      1 ;    C2* - C5*   
    10     15      1 ;    C2* - C4    
    10     16      1 ;    C2* - C8    
    10     23      1 ;    C2* - H4*   
    10     27      1 ;    C2* - H9    
    11     14      1 ;    C1* - C5*   
    11     17      1 ;    C1* - C5    
    11     22      1 ;    C1* - H3*   
    11     23      1 ;    C1* - H4*   
    11     26      1 ;    C1* - H7    
    11     28      1 ;    C1* - H8    
    12     21      1 ;    C3* - H1*   
    12     24      1 ;    C3* - H5*1  
    12     25      1 ;    C3* - H5*2  
    12     26      1 ;    C3* - H7    
    13      5      1 ;    C4* - N9    
    13     20      1 ;    C4* - H2*   
    13     21      1 ;    C4* - H1*   
    13     27      1 ;    C4* - H9    
    13     29      1 ;    C4* - H5*   
    14     22      1 ;    C5* - H3*   
    15     21      1 ;     C4 - H1*   
    15     28      1 ;     C4 - H8    
    15     30      1 ;     C4 - H2    
    16     18      1 ;     C8 - C6    
    16     21      1 ;     C8 - H1*   
    17     19      1 ;     C5 - C2    
    17     28      1 ;     C5 - H8    
    17     31      1 ;     C5 - H61   
    17     32      1 ;     C5 - H62   
    18     30      1 ;     C6 - H2    
    20     21      1 ;    H2* - H1*   
    20     22      1 ;    H2* - H3*   
    20     26      1 ;    H2* - H7    
    22     23      1 ;    H3* - H4*   
    22     27      1 ;    H3* - H9    
    23     24      1 ;    H4* - H5*1  
    23     25      1 ;    H4* - H5*2  
    24     29      1 ;   H5*1 - H5*   
    25     29      1 ;   H5*2 - H5*   

[ angles ]
;   ai     aj     ak    funct   theta         cth
     1     11      5      1 ;    1.0927e+02    7.0124e+02 ;    O4* - C1*  - N9        x -    x - NA  
     1     11     10      1 ;    1.0614e+02    6.4793e+02 ;    O4* - C1*  - C2*       x -    x - x   
     1     11     21      1 ;    1.0947e+02    4.7028e+02 ;    O4* - C1*  - H1*       x -    x - x   
     1     13     12      1 ;    1.0614e+02    6.4793e+02 ;    O4* - C4*  - C3*       x -    x - x   
     1     13     14      1 ;    1.0897e+02    6.4224e+02 ;    O4* - C4*  - C5*       x -    x - CT  
     1     13     23      1 ;    1.0846e+02    4.7229e+02 ;    O4* - C4*  - H4*       x -    x - HC  
     2     10     11      1 ;    1.1162e+02    6.3455e+02 ;    O2* - C2*  - C1*      OH -    x - x   
     2     10     12      1 ;    1.1162e+02    6.3455e+02 ;    O2* - C2*  - C3*      OH -    x - x   
     2     10     20      1 ;    1.1027e+02    4.7254e+02 ;    O2* - C2*  - H2*      OH -    x - HC  
     3     12     10      1 ;    1.1162e+02    6.3455e+02 ;    O3* - C3*  - C2*      OH -    x - x   
     3     12     13      1 ;    1.1162e+02    6.3455e+02 ;    O3* - C3*  - C4*      OH -    x - x   
     3     12     22      1 ;    1.1027e+02    4.7254e+02 ;    O3* - C3*  - H3*      OH -    x - HC  
     4     14     13      1 ;    1.0985e+02    6.4157e+02 ;    O5* - C5*  - C4*      OH -   CT - x   
     4     14     24      1 ;    1.1038e+02    4.7103e+02 ;    O5* - C5*  - H5*1     OH -   CT - HC  
     4     14     25      1 ;    1.1038e+02    4.7103e+02 ;    O5* - C5*  - H5*2     OH -   CT - HC  
     5     11     10      1 ;    1.1485e+02    5.3714e+02 ;     N9 - C1*  - C2*      NA -    x - x   
     5     11     21      1 ;    1.0616e+02    4.0911e+02 ;     N9 - C1*  - H1*      NA -    x - x   
     5     15      7      1 ;    1.2710e+02    5.9856e+02 ;     N9 - C4   - N3       NA -   CA - x   
     5     15     17      1 ;    1.2031e+02    5.6752e+02 ;     N9 - C4   - C5       NA -   CA - CA  
     5     16      6      1 ;    1.1302e+02    6.4024e+02 ;     N9 - C8   - N7       NA -   C* - NB  
     5     16     28      1 ;    1.2083e+02    4.0116e+02 ;     N9 - C8   - H8       NA -   C* - HA  
     6     16     28      1 ;    1.2529e+02    4.0911e+02 ;     N7 - C8   - H8       NB -   C* - HA  
     6     17     15      1 ;    1.2187e+02    5.6400e+02 ;     N7 - C5   - C4       NB -   CA - CA  
     6     17     18      1 ;    1.2187e+02    5.6400e+02 ;     N7 - C5   - C6       NB -   CA - CA  
     7     15     17      1 ;    1.2294e+02    5.7045e+02 ;     N3 - C4   - C5        x -   CA - CA  
     7     19      8      1 ;    1.2730e+02    6.0886e+02 ;     N3 - C2   - N1        x -   CA - x   
     7     19     30      1 ;    1.1579e+02    4.1974e+02 ;     N3 - C2   - H2        x -   CA - HA  
     8     18      9      1 ;    1.1677e+02    6.2727e+02 ;     N1 - C6   - N6        x -   CA - x   
     8     18     17      1 ;    1.2294e+02    5.7045e+02 ;     N1 - C6   - C5        x -   CA - CA  
     8     19     30      1 ;    1.1579e+02    4.1974e+02 ;     N1 - C2   - H2        x -   CA - HA  
     9     18     17      1 ;    1.2094e+02    5.6827e+02 ;     N6 - C6   - C5        x -   CA - CA  
    10      2     26      1 ;    1.0717e+02    5.4727e+02 ;    C2* - O2*  - H7        x -   OH - HO  
    10     11     21      1 ;    1.1053e+02    3.5798e+02 ;    C2* - C1*  - H1*       x -    x - x   
    10     12     13      1 ;    1.0383e+02    5.1748e+02 ;    C2* - C3*  - C4*       x -    x - x   
    10     12     22      1 ;    1.1117e+02    3.5690e+02 ;    C2* - C3*  - H3*       x -    x - HC  
    11      1     13      1 ;    1.0926e+02    7.4986e+02 ;    C1* - O4*  - C4*       x -    x - x   
    11      5     15      1 ;    1.2776e+02    6.2718e+02 ;    C1* - N9   - C4        x -   NA - CA  
    11      5     16      1 ;    1.2654e+02    6.3078e+02 ;    C1* - N9   - C8        x -   NA - C*  
    11     10     12      1 ;    1.0383e+02    5.1748e+02 ;    C1* - C2*  - C3*       x -    x - x   
    11     10     20      1 ;    1.1117e+02    3.5690e+02 ;    C1* - C2*  - H2*       x -    x - HC  
    12      3     27      1 ;    1.0717e+02    5.4727e+02 ;    C3* - O3*  - H9        x -   OH - HO  
    12     10     20      1 ;    1.1117e+02    3.5690e+02 ;    C3* - C2*  - H2*       x -    x - HC  
    12     13     14      1 ;    1.1360e+02    4.9647e+02 ;    C3* - C4*  - C5*       x -    x - CT  
    12     13     23      1 ;    1.1117e+02    3.5690e+02 ;    C3* - C4*  - H4*       x -    x - HC  
    13     12     22      1 ;    1.1117e+02    3.5690e+02 ;    C4* - C3*  - H3*       x -    x - HC  
    13     14     24      1 ;    1.0938e+02    3.6217e+02 ;    C4* - C5*  - H5*1      x -   CT - HC  
    13     14     25      1 ;    1.0938e+02    3.6217e+02 ;    C4* - C5*  - H5*2      x -   CT - HC  
    14      4     29      1 ;    1.0739e+02    5.4501e+02 ;    C5* - O5*  - H5*      CT -   OH - HO  
    14     13     23      1 ;    1.0924e+02    3.6242e+02 ;    C5* - C4*  - H4*      CT -    x - HC  
    15      5     16      1 ;    1.0877e+02    6.9881e+02 ;     C4 - N9   - C8       CA -   NA - C*  
    15      7     19      1 ;    1.1724e+02    6.9580e+02 ;     C4 - N3   - C2       CA -    x - CA  
    15     17     18      1 ;    1.2002e+02    5.3279e+02 ;     C4 - C5   - C6       CA -   CA - CA  
    16      6     17      1 ;    1.0417e+02    7.3069e+02 ;     C8 - N7   - C5       C* -   NB - CA  
    18      8     19      1 ;    1.1724e+02    6.9580e+02 ;     C6 - N1   - C2       CA -    x - CA  
    18      9     31      1 ;    1.1673e+02    4.8292e+02 ;     C6 - N6   - H61      CA -    x - H   
    18      9     32      1 ;    1.1673e+02    4.8292e+02 ;     C6 - N6   - H62      CA -    x - H   
    24     14     25      1 ;    1.0855e+02    2.9824e+02 ;   H5*1 - C5*  - H5*2     HC -   CT - HC  
    31      9     32      1 ;    1.1528e+02    3.8794e+02 ;    H61 - N6   - H62       H -    x - H   

[ dihedrals ] ; propers
; for gromacs 4.5 or higher, using funct 9
;    i      j      k      l   func   phase     kd      pn
     1     11      5     15      9 ;     0.00   0.00000   0 ;    O4*-   C1*-    N9-    C4
     1     11      5     16      9 ;     0.00   0.00000   0 ;    O4*-   C1*-    N9-    C8
     1     11     10      2      9 ;     0.00   2.46856   1 ;    O4*-   C1*-   C2*-   O2*
     1     11     10      2      9 ;     0.00   3.30536   3 ;    O4*-   C1*-   C2*-   O2*
     1     11     10      2      9 ;     0.00   5.27184   2 ;    O4*-   C1*-   C2*-   O2*
     1     11     10     12      9 ;     0.00   0.65084   3 ;    O4*-   C1*-   C2*-   C3*
     1     11     10     20      9 ;     0.00   0.00000   0 ;    O4*-   C1*-   C2*-   H2*
     1     11     10     20      9 ;     0.00   1.04600   1 ;    O4*-   C1*-   C2*-   H2*
     1     13     12      3      9 ;     0.00   2.46856   1 ;    O4*-   C4*-   C3*-   O3*
     1     13     12      3      9 ;     0.00   3.30536   3 ;    O4*-   C4*-   C3*-   O3*
     1     13     12      3      9 ;     0.00   5.27184   2 ;    O4*-   C4*-   C3*-   O3*
     1     13     12     10      9 ;     0.00   0.65084   3 ;    O4*-   C4*-   C3*-   C2*
     1     13     12     22      9 ;     0.00   0.00000   0 ;    O4*-   C4*-   C3*-   H3*
     1     13     12     22      9 ;     0.00   1.04600   1 ;    O4*-   C4*-   C3*-   H3*
     1     13     14      4      9 ;     0.00   2.46856   1 ;    O4*-   C4*-   C5*-   O5*
     1     13     14      4      9 ;     0.00   3.30536   3 ;    O4*-   C4*-   C5*-   O5*
     1     13     14      4      9 ;     0.00   5.27184   2 ;    O4*-   C4*-   C5*-   O5*
     1     13     14     24      9 ;     0.00   0.00000   0 ;    O4*-   C4*-   C5*-  H5*1
     1     13     14     24      9 ;     0.00   1.04600   1 ;    O4*-   C4*-   C5*-  H5*1
     1     13     14     25      9 ;     0.00   0.00000   0 ;    O4*-   C4*-   C5*-  H5*2
     1     13     14     25      9 ;     0.00   1.04600   1 ;    O4*-   C4*-   C5*-  H5*2
     2     10     11      5      9 ;     0.00   0.65084   3 ;    O2*-   C2*-   C1*-    N9
     2     10     11     21      9 ;     0.00   0.65084   3 ;    O2*-   C2*-   C1*-   H1*
     2     10     12      3      9 ;     0.00   4.18400   1 ;    O2*-   C2*-   C3*-   O3*
     2     10     12      3      9 ;     0.00   6.02496   3 ;    O2*-   C2*-   C3*-   O3*
     2     10     12     13      9 ;     0.00   0.75312   3 ;    O2*-   C2*-   C3*-   C4*
     2     10     12     22      9 ;     0.00   0.00000   0 ;    O2*-   C2*-   C3*-   H3*
     2     10     12     22      9 ;     0.00   1.04600   1 ;    O2*-   C2*-   C3*-   H3*
     3     12     10     11      9 ;     0.00   0.75312   3 ;    O3*-   C3*-   C2*-   C1*
     3     12     10     20      9 ;     0.00   0.00000   0 ;    O3*-   C3*-   C2*-   H2*
     3     12     10     20      9 ;     0.00   1.04600   1 ;    O3*-   C3*-   C2*-   H2*
     3     12     13     14      9 ;     0.00   0.75312   3 ;    O3*-   C3*-   C4*-   C5*
     3     12     13     23      9 ;     0.00   0.00000   0 ;    O3*-   C3*-   C4*-   H4*
     3     12     13     23      9 ;     0.00   1.04600   1 ;    O3*-   C3*-   C4*-   H4*
     4     14     13     12      9 ;     0.00   0.75312   3 ;    O5*-   C5*-   C4*-   C3*
     4     14     13     23      9 ;     0.00   0.00000   0 ;    O5*-   C5*-   C4*-   H4*
     4     14     13     23      9 ;     0.00   1.04600   1 ;    O5*-   C5*-   C4*-   H4*
     5     11     10     12      9 ;     0.00   0.65084   3 ;     N9-   C1*-   C2*-   C3*
     5     11     10     20      9 ;     0.00   0.65084   3 ;     N9-   C1*-   C2*-   H2*
     5     15      7     19      9 ;   180.00  20.08320   2 ;     N9-    C4-    N3-    C2
     5     15     17      6      9 ;   180.00  15.16700   2 ;     N9-    C4-    C5-    N7
     5     15     17     18      9 ;   180.00  15.16700   2 ;     N9-    C4-    C5-    C6
     5     16      6     17      9 ;   180.00  19.87400   2 ;     N9-    C8-    N7-    C5
     6     16      5     11      9 ;   180.00   7.11280   2 ;     N7-    C8-    N9-   C1*
     6     16      5     15      9 ;   180.00   7.11280   2 ;     N7-    C8-    N9-    C4
     6     17     15      7      9 ;   180.00  15.16700   2 ;     N7-    C5-    C4-    N3
     6     17     18      8      9 ;   180.00  15.16700   2 ;     N7-    C5-    C6-    N1
     6     17     18      9      9 ;   180.00  15.16700   2 ;     N7-    C5-    C6-    N6
     7     15      5     11      9 ;   180.00   1.25520   2 ;     N3-    C4-    N9-   C1*
     7     15      5     16      9 ;   180.00   1.25520   2 ;     N3-    C4-    N9-    C8
     7     15     17     18      9 ;   180.00  15.16700   2 ;     N3-    C4-    C5-    C6
     7     19      8     18      9 ;   180.00  20.08320   2 ;     N3-    C2-    N1-    C6
     8     18      9     31      9 ;   180.00   4.39320   2 ;     N1-    C6-    N6-   H61
     8     18      9     32      9 ;   180.00   4.39320   2 ;     N1-    C6-    N6-   H62
     8     18     17     15      9 ;   180.00  15.16700   2 ;     N1-    C6-    C5-    C4
     8     19      7     15      9 ;   180.00  20.08320   2 ;     N1-    C2-    N3-    C4
     9     18      8     19      9 ;   180.00  20.08320   2 ;     N6-    C6-    N1-    C2
     9     18     17     15      9 ;   180.00  15.16700   2 ;     N6-    C6-    C5-    C4
    10     11      5     15      9 ;     0.00   0.00000   0 ;    C2*-   C1*-    N9-    C4
    10     11      5     16      9 ;     0.00   0.00000   0 ;    C2*-   C1*-    N9-    C8
    10     12      3     27      9 ;     0.00   0.25104   3 ;    C2*-   C3*-   O3*-    H9
    10     12     13     14      9 ;     0.00   2.17568   3 ;    C2*-   C3*-   C4*-   C5*
    10     12     13     23      9 ;     0.00   0.65084   3 ;    C2*-   C3*-   C4*-   H4*
    11      1     13     12      9 ;     0.00   0.33472   2 ;    C1*-   O4*-   C4*-   C3*
    11      1     13     12      9 ;     0.00   3.13800   3 ;    C1*-   O4*-   C4*-   C3*
    11      1     13     12      9 ;   180.00   3.68192   1 ;    C1*-   O4*-   C4*-   C3*
    11      1     13     14      9 ;     0.00   0.33472   2 ;    C1*-   O4*-   C4*-   C5*
    11      1     13     14      9 ;     0.00   3.13800   3 ;    C1*-   O4*-   C4*-   C5*
    11      1     13     14      9 ;   180.00   3.68192   1 ;    C1*-   O4*-   C4*-   C5*
    11      1     13     23      9 ;     0.00   1.41001   3 ;    C1*-   O4*-   C4*-   H4*
    11      5     15     17      9 ;   180.00   1.25520   2 ;    C1*-    N9-    C4-    C5
    11      5     16     28      9 ;   180.00   7.11280   2 ;    C1*-    N9-    C8-    H8
    11     10      2     26      9 ;     0.00   0.25104   3 ;    C1*-   C2*-   O2*-    H7
    11     10     12     13      9 ;     0.00   2.17568   3 ;    C1*-   C2*-   C3*-   C4*
    11     10     12     22      9 ;     0.00   0.65084   3 ;    C1*-   C2*-   C3*-   H3*
    12     10      2     26      9 ;     0.00   0.25104   3 ;    C3*-   C2*-   O2*-    H7
    12     10     11     21      9 ;     0.00   0.65084   3 ;    C3*-   C2*-   C1*-   H1*
    12     13     14     24      9 ;     0.00   0.65084   3 ;    C3*-   C4*-   C5*-  H5*1
    12     13     14     25      9 ;     0.00   0.65084   3 ;    C3*-   C4*-   C5*-  H5*2
    13      1     11      5      9 ;     0.00   1.60247   3 ;    C4*-   O4*-   C1*-    N9
    13      1     11      5      9 ;     0.00   2.71960   2 ;    C4*-   O4*-   C1*-    N9
    13      1     11     10      9 ;     0.00   0.33472   2 ;    C4*-   O4*-   C1*-   C2*
    13      1     11     10      9 ;     0.00   3.13800   3 ;    C4*-   O4*-   C1*-   C2*
    13      1     11     10      9 ;   180.00   3.68192   1 ;    C4*-   O4*-   C1*-   C2*
    13      1     11     21      9 ;     0.00   1.60387   3 ;    C4*-   O4*-   C1*-   H1*
    13     12      3     27      9 ;     0.00   0.25104   3 ;    C4*-   C3*-   O3*-    H9
    13     12     10     20      9 ;     0.00   0.65084   3 ;    C4*-   C3*-   C2*-   H2*
    13     14      4     29      9 ;     0.00   0.25104   3 ;    C4*-   C5*-   O5*-   H5*
    14     13     12     22      9 ;     0.00   0.65084   3 ;    C5*-   C4*-   C3*-   H3*
    15      5     11     21      9 ;     0.00   0.00000   0 ;     C4-    N9-   C1*-   H1*
    15      5     16     28      9 ;   180.00   7.11280   2 ;     C4-    N9-    C8-    H8
    15      7     19     30      9 ;   180.00  20.08320   2 ;     C4-    N3-    C2-    H2
    15     17      6     16      9 ;   180.00  20.08320   2 ;     C4-    C5-    N7-    C8
    16      5     11     21      9 ;     0.00   0.00000   0 ;     C8-    N9-   C1*-   H1*
    16      5     15     17      9 ;   180.00   1.25520   2 ;     C8-    N9-    C4-    C5
    16      6     17     18      9 ;   180.00  20.08320   2 ;     C8-    N7-    C5-    C6
    17      6     16     28      9 ;   180.00  19.87400   2 ;     C5-    N7-    C8-    H8
    17     15      7     19      9 ;   180.00  20.08320   2 ;     C5-    C4-    N3-    C2
    17     18      8     19      9 ;   180.00  20.08320   2 ;     C5-    C6-    N1-    C2
    17     18      9     31      9 ;   180.00   4.39320   2 ;     C5-    C6-    N6-   H61
    17     18      9     32      9 ;   180.00   4.39320   2 ;     C5-    C6-    N6-   H62
    18      8     19     30      9 ;   180.00  20.08320   2 ;     C6-    N1-    C2-    H2
    20     10      2     26      9 ;     0.00   0.51463   3 ;    H2*-   C2*-   O2*-    H7
    20     10     11     21      9 ;     0.00   0.65084   3 ;    H2*-   C2*-   C1*-   H1*
    20     10     12     22      9 ;     0.00   0.65084   3 ;    H2*-   C2*-   C3*-   H3*
    22     12      3     27      9 ;     0.00   0.51463   3 ;    H3*-   C3*-   O3*-    H9
    22     12     13     23      9 ;     0.00   0.65084   3 ;    H3*-   C3*-   C4*-   H4*
    23     13     14     24      9 ;     0.00   0.65084   3 ;    H4*-   C4*-   C5*-  H5*1
    23     13     14     25      9 ;     0.00   0.65084   3 ;    H4*-   C4*-   C5*-  H5*2
    24     14      4     29      9 ;     0.00   0.51463   3 ;   H5*1-   C5*-   O5*-   H5*
    25     14      4     29      9 ;     0.00   0.51463   3 ;   H5*2-   C5*-   O5*-   H5*

[ dihedrals ] ; impropers
; treated as propers in GROMACS to use correct AMBER analytical function
;    i      j      k      l   func   phase     kd      pn
    11     15      5     16      4 ;   180.00   4.60240   2 ;    C1*-    C4-    N9-    C8
    15     18     17      6      4 ;   180.00   4.60240   2 ;     C4-    C6-    C5-    N7
    17      5     15      7      4 ;   180.00   4.60240   2 ;     C5-    N9-    C4-    N3
    17      8     18      9      4 ;   180.00   4.60240   2 ;     C5-    N1-    C6-    N6
    18     31      9     32      4 ;   180.00   4.60240   2 ;     C6-   H61-    N6-   H62
    28      5     16      6      4 ;   180.00   4.60240   2 ;     H8-    N9-    C8-    N7
    30      7     19      8      4 ;   180.00   4.60240   2 ;     H2-    N3-    C2-    N1
