adenosine_GMX.gro created by acpype (v: 2023.10.27) on Mon Feb  9 17:24:46 2026
 32
    1   A1  O4*    1   0.200  -0.052  -0.095
    1   A1  O2*    2   0.121   0.227   0.118
    1   A1  O3*    3   0.340   0.213  -0.042
    1   A1  O5*    4   0.379  -0.260  -0.038
    1   A1   N9    5  -0.021  -0.026  -0.014
    1   A1   N7    6  -0.164  -0.189   0.039
    1   A1   N3    7  -0.178   0.155  -0.055
    1   A1   N1    8  -0.409   0.081  -0.022
    1   A1   N6    9  -0.464  -0.142   0.043
    1   A1  C2*   10   0.172   0.099   0.085
    1   A1  C1*   11   0.106   0.042  -0.039
    1   A1  C3*   12   0.317   0.102   0.044
    1   A1  C4*   13   0.330  -0.026  -0.038
    1   A1  C5*   14   0.371  -0.147   0.046
    1   A1   C4   15  -0.146   0.029  -0.022
    1   A1   C8   16  -0.037  -0.157   0.023
    1   A1   C5   17  -0.233  -0.074   0.011
    1   A1   C6   18  -0.369  -0.044   0.010
    1   A1   C2   19  -0.312   0.172  -0.052
    1   A1  H2*   20   0.158   0.033   0.172
    1   A1  H1*   21   0.086   0.118  -0.115
    1   A1  H3*   22   0.387   0.110   0.128
    1   A1  H4*   23   0.400  -0.015  -0.123
    1   A1 H5*1   24   0.297  -0.169   0.124
    1   A1 H5*2   25   0.468  -0.131   0.093
    1   A1   H7   26   0.138   0.286   0.043
    1   A1   H9   27   0.433   0.210  -0.071
    1   A1   H8   28   0.046  -0.224   0.038
    1   A1  H5*   29   0.292  -0.273  -0.080
    1   A1   H2   30  -0.348   0.271  -0.078
    1   A1  H61   31  -0.435  -0.236   0.067
    1   A1  H62   32  -0.562  -0.118   0.042
   20.61400    11.17200     5.88000
