%VERSION  VERSION_STAMP = V0001.000  DATE = 02/09/26  17:25:18                  
%FLAG TITLE                                                                     
%FORMAT(20a4)                                                                   
60961                                                                           
%FLAG POINTERS                                                                  
%FORMAT(10I8)                                                                   
      32      12      13      21      27      31      55      63       0       0
     175       1      21      31      63      20      40      27      15       0
       0       0       0       0       0       0       0       0      32       0
       0
%FLAG ATOM_NAME                                                                 
%FORMAT(20a4)                                                                   
O4* O2* O3* O5* N9  N7  N3  N1  N6  C2* C1* C3* C4* C5* C4  C8  C5  C6  C2  H2* 
H1* H3* H4* H5*1H5*2H7  H9  H8  H5* H2  H61 H62 
%FLAG CHARGE                                                                    
%FORMAT(5E16.8)                                                                 
 -7.51852098E+00 -1.02555104E+01 -1.06928456E+01 -1.07292902E+01 -5.17513320E+00
 -9.69608583E+00 -1.33751682E+01 -1.44867285E+01 -1.75025192E+01  2.37072123E+00
  3.84126084E+00  1.45960623E+00  8.58270330E-01  2.15752032E+00  8.70661494E+00
  7.19234181E+00 -4.37699646E+00  1.39801486E+01  1.26080094E+01  1.85320791E+00
  2.47276611E+00  1.10609361E+00  1.74387411E+00  9.14759460E-01  9.14759460E-01
  7.78092210E+00  7.63514370E+00  1.21724964E+00  7.63514370E+00  9.85826430E-01
  8.21461284E+00  8.21461284E+00
%FLAG ATOMIC_NUMBER                                                             
%FORMAT(10I8)                                                                   
       8       8       8       8       7       7       7       7       7       6
       6       6       6       6       6       6       6       6       6       1
       1       1       1       1       1       1       1       1       1       1
       1       1
%FLAG MASS                                                                      
%FORMAT(5E16.8)                                                                 
  1.60000000E+01  1.60000000E+01  1.60000000E+01  1.60000000E+01  1.40100000E+01
  1.40100000E+01  1.40100000E+01  1.40100000E+01  1.40100000E+01  1.20100000E+01
  1.20100000E+01  1.20100000E+01  1.20100000E+01  1.20100000E+01  1.20100000E+01
  1.20100000E+01  1.20100000E+01  1.20100000E+01  1.20100000E+01  1.00800000E+00
  1.00800000E+00  1.00800000E+00  1.00800000E+00  1.00800000E+00  1.00800000E+00
  1.00800000E+00  1.00800000E+00  1.00800000E+00  1.00800000E+00  1.00800000E+00
  1.00800000E+00  1.00800000E+00
%FLAG ATOM_TYPE_INDEX                                                           
%FORMAT(10I8)                                                                   
       1       2       2       2       3       4       4       4       5       6
       6       6       6       6       7       7       7       7       7       8
       9       8       8       8       8      10      10      11      10      11
      12      12
%FLAG NUMBER_EXCLUDED_ATOMS                                                     
%FORMAT(10I8)                                                                   
      17      10       9       7      14       9       8       8       6      12
      12      10       9       5       7       4       5       4       1       3
       1       2       2       2       1       1       1       1       1       1
       1       1
%FLAG NONBONDED_PARM_INDEX                                                      
%FORMAT(10I8)                                                                   
       1       2       4       7      11      16      22      29      37      46
      56      67       2       3       5       8      12      17      23      30
      38      47      57      68       4       5       6       9      13      18
      24      31      39      48      58      69       7       8       9      10
      14      19      25      32      40      49      59      70      11      12
      13      14      15      20      26      33      41      50      60      71
      16      17      18      19      20      21      27      34      42      51
      61      72      22      23      24      25      26      27      28      35
      43      52      62      73      29      30      31      32      33      34
      35      36      44      53      63      74      37      38      39      40
      41      42      43      44      45      54      64      75      46      47
      48      49      50      51      52      53      54      55      65      76
      56      57      58      59      60      61      62      63      64      65
      66      77      67      68      69      70      71      72      73      74
      75      76      77      78
%FLAG RESIDUE_LABEL                                                             
%FORMAT(20a4)                                                                   
A1  
%FLAG RESIDUE_POINTER                                                           
%FORMAT(10I8)                                                                   
       1
%FLAG BOND_FORCE_CONSTANT                                                       
%FORMAT(5E16.8)                                                                 
  2.75610000E+02  2.89690000E+02  5.35510000E+02  2.85150000E+02  2.60400000E+02
  3.29320000E+02  3.32450000E+02  4.17790000E+02  3.29990000E+02  3.86490000E+02
  3.42300000E+02  4.77540000E+02  2.20100000E+02  3.43780000E+02  3.46280000E+02
  2.27640000E+02  3.44220000E+02  3.54250000E+02  3.66810000E+02  3.57590000E+02
%FLAG BOND_EQUIL_VALUE                                                          
%FORMAT(5E16.8)                                                                 
  1.43460000E+00  1.41940000E+00  9.72500000E-01  1.42420000E+00  1.45710000E+00
  1.38580000E+00  1.38300000E+00  1.31710000E+00  1.38520000E+00  1.33920000E+00
  1.37440000E+00  1.01140000E+00  1.54830000E+00  1.09720000E+00  1.09550000E+00
  1.53720000E+00  1.09690000E+00  1.39860000E+00  1.08210000E+00  1.08800000E+00
%FLAG ANGLE_FORCE_CONSTANT                                                      
%FORMAT(5E16.8)                                                                 
  8.38000000E+01  7.74300000E+01  5.62000000E+01  7.67500000E+01  5.64400000E+01
  7.58300000E+01  5.64700000E+01  7.66700000E+01  5.62900000E+01  6.41900000E+01
  4.88900000E+01  7.15300000E+01  6.78200000E+01  7.65100000E+01  4.79400000E+01
  4.88900000E+01  6.74000000E+01  6.81700000E+01  7.27600000E+01  5.01600000E+01
  7.49600000E+01  6.79100000E+01  6.54000000E+01  4.27800000E+01  6.18400000E+01
  4.26500000E+01  8.96100000E+01  7.49500000E+01  7.53800000E+01  5.93300000E+01
  4.32800000E+01  6.51300000E+01  4.33100000E+01  8.35100000E+01  8.31500000E+01
  6.36700000E+01  8.73200000E+01  5.77100000E+01  3.56400000E+01  4.63600000E+01
%FLAG ANGLE_EQUIL_VALUE                                                         
%FORMAT(5E16.8)                                                                 
  1.90712209E+00  1.85249326E+00  1.91061275E+00  1.90188610E+00  1.89298492E+00
  1.94813735E+00  1.92457539E+00  1.91724501E+00  1.92649525E+00  2.00451150E+00
  1.85284233E+00  2.21831443E+00  2.09980652E+00  1.97257197E+00  2.10888224E+00
  2.18672396E+00  2.12703367E+00  2.14570870E+00  2.22180509E+00  2.02091761E+00
  2.03802184E+00  2.11080210E+00  1.87047016E+00  1.92911325E+00  1.81217614E+00
  1.94028336E+00  1.90694756E+00  2.22983361E+00  2.20854058E+00  1.98269488E+00
  1.90904195E+00  1.87430989E+00  1.90659849E+00  1.89839544E+00  2.04622489E+00
  2.09474507E+00  1.81811026E+00  2.03732371E+00  1.89455572E+00  2.01201642E+00
%FLAG DIHEDRAL_FORCE_CONSTANT                                                   
%FORMAT(5E16.8)                                                                 
  0.00000000E+00  5.90000000E-01  1.26000000E+00  7.90000000E-01  1.55555556E-01
  2.50000000E-01  0.00000000E+00  1.00000000E+00  1.44000000E+00  1.80000000E-01
  6.50000000E-01  3.83000000E-01  4.80000000E+00  3.62500000E+00  4.75000000E+00
  1.70000000E+00  3.00000000E-01  1.05000000E+00  8.80000000E-01  8.00000000E-02
  7.50000000E-01  6.00000000E-02  5.20000000E-01  3.37000000E-01  3.83333333E-01
  1.23000000E-01  1.10000000E+00
%FLAG DIHEDRAL_PERIODICITY                                                      
%FORMAT(5E16.8)                                                                 
  2.00000000E+00  1.00000000E+00  2.00000000E+00  3.00000000E+00  3.00000000E+00
  1.00000000E+00  3.00000000E+00  1.00000000E+00  3.00000000E+00  3.00000000E+00
  2.00000000E+00  3.00000000E+00  2.00000000E+00  2.00000000E+00  2.00000000E+00
  2.00000000E+00  2.00000000E+00  2.00000000E+00  1.00000000E+00  2.00000000E+00
  3.00000000E+00  3.00000000E+00  3.00000000E+00  3.00000000E+00  3.00000000E+00
  3.00000000E+00  2.00000000E+00
%FLAG DIHEDRAL_PHASE                                                            
%FORMAT(5E16.8)                                                                 
  0.00000000E+00  0.00000000E+00  0.00000000E+00  0.00000000E+00  0.00000000E+00
  0.00000000E+00  0.00000000E+00  0.00000000E+00  0.00000000E+00  0.00000000E+00
  0.00000000E+00  0.00000000E+00  3.14159400E+00  3.14159400E+00  3.14159400E+00
  3.14159400E+00  3.14159400E+00  3.14159400E+00  3.14159400E+00  0.00000000E+00
  0.00000000E+00  0.00000000E+00  0.00000000E+00  0.00000000E+00  0.00000000E+00
  0.00000000E+00  3.14159400E+00
%FLAG SCEE_SCALE_FACTOR                                                         
%FORMAT(5E16.8)                                                                 
  1.20000000E+00  1.20000000E+00  1.20000000E+00  1.20000000E+00  1.20000000E+00
  1.20000000E+00  1.20000000E+00  1.20000000E+00  1.20000000E+00  1.20000000E+00
  1.20000000E+00  1.20000000E+00  1.20000000E+00  1.20000000E+00  1.20000000E+00
  1.20000000E+00  1.20000000E+00  1.20000000E+00  1.20000000E+00  1.20000000E+00
  1.20000000E+00  1.20000000E+00  1.20000000E+00  1.20000000E+00  1.20000000E+00
  1.20000000E+00  0.00000000E+00
%FLAG SCNB_SCALE_FACTOR                                                         
%FORMAT(5E16.8)                                                                 
  2.00000000E+00  2.00000000E+00  2.00000000E+00  2.00000000E+00  2.00000000E+00
  2.00000000E+00  2.00000000E+00  2.00000000E+00  2.00000000E+00  2.00000000E+00
  2.00000000E+00  2.00000000E+00  2.00000000E+00  2.00000000E+00  2.00000000E+00
  2.00000000E+00  2.00000000E+00  2.00000000E+00  2.00000000E+00  2.00000000E+00
  2.00000000E+00  2.00000000E+00  2.00000000E+00  2.00000000E+00  2.00000000E+00
  2.00000000E+00  0.00000000E+00
%FLAG SOLTY                                                                     
%FORMAT(5E16.8)                                                                 
  0.00000000E+00  0.00000000E+00  0.00000000E+00  0.00000000E+00  0.00000000E+00
  0.00000000E+00  0.00000000E+00  0.00000000E+00  0.00000000E+00  0.00000000E+00
  0.00000000E+00  0.00000000E+00  0.00000000E+00  0.00000000E+00  0.00000000E+00
%FLAG LENNARD_JONES_ACOEF                                                       
%FORMAT(5E16.8)                                                                 
  2.83662575E+05  3.78207390E+05  5.03152404E+05  5.22690526E+05  6.96017793E+05
  9.62429652E+05  4.94433451E+05  6.55497149E+05  9.08092643E+05  8.49322032E+05
  5.23754919E+05  6.94638423E+05  9.62159465E+05  9.00584118E+05  9.54875571E+05
  5.42502534E+05  7.18991463E+05  9.96191545E+05  9.31115275E+05  9.87370297E+05
  1.02073671E+06  4.46121722E+05  5.92438683E+05  8.20152428E+05  7.69642101E+05
  8.15855629E+05  8.43969952E+05  6.96551276E+05  3.44374471E+04  4.69084694E+04
  6.42436358E+04  6.34160397E+04  6.69267216E+04  6.97998263E+04  5.63013422E+04
  3.39005767E+03  2.33261683E+04  3.19666529E+04  4.36678042E+04  4.36276732E+04
  4.59944574E+04  4.80619274E+04  3.85565555E+04  2.16218723E+03  1.35510742E+03
  1.16469347E+02  1.74176419E+02  2.29317644E+02  2.72118326E+02  2.82631147E+02
  3.03553352E+02  2.25372434E+02  4.36660257E+00  2.07292270E+00  1.10360882E-05
  3.19887757E+04  4.35368956E+04  5.96470418E+04  5.87815925E+04  6.20446596E+04
  6.46910138E+04  5.22195041E+04  3.17496391E+03  2.02982706E+03  4.25484751E+00
  2.97255425E+03  9.46795083E+02  1.36475542E+03  1.82491629E+03  2.01475241E+03
  2.10567903E+03  2.23577481E+03  1.71458823E+03  5.24570081E+01  2.81680913E+01
  2.61760843E-03  5.02830284E+01  1.34728399E-01
%FLAG LENNARD_JONES_BCOEF                                                       
%FORMAT(5E16.8)                                                                 
  2.87011518E+02  3.52573684E+02  4.32634597E+02  5.04545572E+02  6.19405188E+02
  8.86629877E+02  4.04310927E+02  4.95260330E+02  7.09588248E+02  5.65406768E+02
  4.34643024E+02  5.32518426E+02  7.62907640E+02  6.08126668E+02  6.54052181E+02
  4.38146883E+02  5.36620538E+02  7.68900328E+02  6.12468585E+02  6.58763033E+02
  6.63431737E+02  3.88758656E+02  4.76608379E+02  6.82622272E+02  5.44830041E+02
  5.85909304E+02  5.90251928E+02  5.24668528E+02  7.31636661E+01  9.08431526E+01
  1.29412081E+02  1.05935811E+02  1.13671113E+02  1.14981426E+02  1.01040256E+02
  1.67944276E+01  6.02145835E+01  7.49920368E+01  1.06694109E+02  8.78666889E+01
  9.42330147E+01  9.54115851E+01  8.36149973E+01  1.34124560E+01  1.06181419E+01
  2.93355636E+00  3.81654050E+00  5.33073545E+00  4.78443613E+00  5.09294489E+00
  5.22789272E+00  4.40751799E+00  4.15568027E-01  2.86326700E-01  4.55498033E-04
  6.61407978E+01  8.20891825E+01  1.16962018E+02  9.56653235E+01  1.02658089E+02
  1.03827676E+02  9.12729468E+01  1.52447987E+01  1.21893856E+01  3.84771529E-01
  1.38359132E+01  1.01016461E+01  1.29026271E+01  1.81620725E+01  1.57231024E+01
  1.67892226E+01  1.71355763E+01  1.46824710E+01  1.73959275E+00  1.27474859E+00
  8.47240681E-03  1.59752321E+00  7.34107347E-02
%FLAG BONDS_INC_HYDROGEN                                                        
%FORMAT(10I8)                                                                   
       3      75       3       6      78       3       9      84       3      24
      90      12      24      93      12      27      57      14      30      60
      15      33      63      14      36      66      14      39      69      17
      39      72      17      45      81      19      54      87      20
%FLAG BONDS_WITHOUT_HYDROGEN                                                    
%FORMAT(10I8)                                                                   
       0      30       1       0      36       1       3      27       2       6
      33       2       9      39       4      12      30       5      12      42
       6      12      45       7      15      45       8      15      48       9
      18      42      10      18      54      10      21      51      10      21
      54      10      24      51      11      27      30      13      27      33
      13      33      36      13      36      39      16      42      48      18
      48      51      18
%FLAG ANGLES_INC_HYDROGEN                                                       
%FORMAT(10I8)                                                                   
       0      30      60       3       0      36      66       5       3      27
      57       7       6      33      63       7       9      39      69       9
       9      39      72       9      12      30      60      11      12      45
      81      15      15      45      81      16      18      54      87      20
      21      54      87      20      27       3      75      23      27      30
      60      24      27      33      63      26      30      27      57      26
      33       6      78      23      33      27      57      26      33      36
      66      26      36      33      63      26      36      39      69      31
      36      39      72      31      39       9      84      32      39      36
      66      33      51      24      90      38      51      24      93      38
      69      39      72      39      90      24      93      40
%FLAG ANGLES_WITHOUT_HYDROGEN                                                   
%FORMAT(10I8)                                                                   
       0      30      12       1       0      30      27       2       0      36
      33       2       0      36      39       4       3      27      30       6
       3      27      33       6       6      33      27       6       6      33
      36       6       9      39      36       8      12      30      27      10
      12      42      18      12      12      42      48      13      12      45
      15      14      15      48      42      17      15      48      51      17
      18      42      48      18      18      54      21      19      21      51
      24      21      21      51      48      18      24      51      48      22
      27      33      36      25      30       0      36      27      30      12
      42      28      30      12      45      29      30      27      33      25
      33      36      39      30      42      12      45      34      42      18
      54      35      42      48      51      36      45      15      48      37
      51      21      54      35
%FLAG DIHEDRALS_INC_HYDROGEN                                                    
%FORMAT(10I8)                                                                   
       0      30      27      57       6       0      30     -27      57       7
       0      36      33      63       6       0      36     -33      63       7
       0      36      39      69       6       0      36     -39      69       7
       0      36      39      72       6       0      36     -39      72       7
       3      27      30      60       5       3      27      33      63       6
       3      27     -33      63       7       6      33      27      57       6
       6      33     -27      57       7       6      33      36      66       6
       6      33     -36      66       7       9      39      36      66       6
       9      39     -36      66       7      12      30      27      57       5
      21      51      24      90      18      21      51      24      93      18
      27      33       6      78      22      27      33      36      66       5
      30       0      36      66      24      30      12      45      81      16
      30      27       3      75      22      30      27      33      63       5
      33      27       3      75      22      33      27      30      60       5
      33      36      39      69       5      33      36      39      72       5
      36       0      30      60      25      36      33       6      78      22
      36      33      27      57       5      36      39       9      84      22
      39      36      33      63       5      42      12      30      60       1
      42      12      45      81      16      42      18      54      87      13
      45      12      30      60       1      48      15      45      81      15
      48      51      24      90      18      48      51      24      93      18
      51      21      54      87      13      57      27       3      75      26
      57      27      30      60       5      57      27      33      63       5
      63      33       6      78      26      63      33      36      66       5
      66      36      39      69       5      66      36      39      72       5
      69      39       9      84      26      72      39       9      84      26
      51      90     -24     -93      27      81      12     -45     -15      27
      87      18     -54     -21      27
%FLAG DIHEDRALS_WITHOUT_HYDROGEN                                                
%FORMAT(10I8)                                                                   
       0      30      12      42       1       0      30      12      45       1
       0      30      27       3       2       0      30     -27       3       3
       0      30     -27       3       4       0      30     -27      33       5
       0      36      33       6       2       0      36     -33       6       3
       0      36     -33       6       4       0      36     -33      27       5
       0      36      39       9       2       0      36     -39       9       3
       0      36     -39       9       4       3      27      30      12       5
       3      27      33       6       8       3      27     -33       6       9
       3      27      33      36      10       6      33      27      30      10
       6      33      36      39      10       9      39      36      33      10
      36       0      30      12      11      36       0     -30      12      12
      12      30      27      33       5      12      42      18      54      13
      12      42     -48      15      14      12      42      48      51      14
      12      45     -15      48      15      15      45      12      30      16
      15      45     -12      42      16      15      48      42      18      14
      15      48      51      21      14      15      48      51      24      14
      18      42      12      30      17      18      42      12      45      17
      18      42      48      51      14      18      54     -21      51      13
      21      51      48      42      14      21      54     -18      42      13
      24      51      21      54      13      24      51      48      42      14
      36       0     -30      27      19      36       0     -30      27      20
      36       0     -30      27      21      27      30      12      42       1
      27      30      12      45       1      27      33      36      39      23
      30       0     -36      33      19      30       0     -36      33      20
      30       0     -36      33      21      30       0      36      39      19
      30       0     -36      39      20      30       0     -36      39      21
      30      12      42      48      17      30      27     -33      36      23
      42      48     -15      45      13      45      12     -42      48      17
      45      15      48      51      13      48      42      18      54      13
      48      51     -21      54      13      30      42     -12     -45      27
      48      12     -42     -18      27      42      51     -48     -15      27
      48      21     -51     -24      27
%FLAG EXCLUDED_ATOMS_LIST                                                       
%FORMAT(10I8)                                                                   
       2       3       4       5      10      11      12      13      14      15
      16      20      21      22      23      24      25       3       5      10
      11      12      13      20      21      22      26      10      11      12
      13      14      20      22      23      27      12      13      14      23
      24      25      29       6       7      10      11      12      13      15
      16      17      18      19      20      21      28       7       8       9
      11      15      16      17      18      28       8      11      15      16
      17      18      19      30       9      15      17      18      19      30
      31      32      15      17      18      19      31      32      11      12
      13      14      15      16      20      21      22      23      26      27
      12      13      14      15      16      17      20      21      22      23
      26      28      13      14      20      21      22      23      24      25
      26      27      14      20      21      22      23      24      25      27
      29      22      23      24      25      29      16      17      18      19
      21      28      30      17      18      21      28      18      19      28
      31      32      19      30      31      32      30      21      22      26
       0      23      27      24      25      25      29      29       0       0
       0       0       0      32       0
%FLAG HBOND_ACOEF                                                               
%FORMAT(5E16.8)                                                                 

%FLAG HBOND_BCOEF                                                               
%FORMAT(5E16.8)                                                                 

%FLAG HBCUT                                                                     
%FORMAT(5E16.8)                                                                 

%FLAG AMBER_ATOM_TYPE                                                           
%FORMAT(20a4)                                                                   
os  oh  oh  oh  na  nc  nb  nb  nv  c5  c5  c5  c5  c3  ca  cd  ca  ca  ca  h1  
h2  h1  h1  h1  h1  ho  ho  h5  ho  h5  hn  hn  
%FLAG TREE_CHAIN_CLASSIFICATION                                                 
%FORMAT(20a4)                                                                   
BLA BLA BLA BLA BLA BLA BLA BLA BLA BLA BLA BLA BLA BLA BLA BLA BLA BLA BLA BLA 
BLA BLA BLA BLA BLA BLA BLA BLA BLA BLA BLA BLA 
%FLAG JOIN_ARRAY                                                                
%FORMAT(10I8)                                                                   
       0       0       0       0       0       0       0       0       0       0
       0       0       0       0       0       0       0       0       0       0
       0       0       0       0       0       0       0       0       0       0
       0       0
%FLAG IROTAT                                                                    
%FORMAT(10I8)                                                                   
       0       0       0       0       0       0       0       0       0       0
       0       0       0       0       0       0       0       0       0       0
       0       0       0       0       0       0       0       0       0       0
       0       0
%FLAG RADIUS_SET                                                                
%FORMAT(1a80)                                                                   
modified Bondi radii (mbondi)                                                   
%FLAG RADII                                                                     
%FORMAT(5E16.8)                                                                 
  1.50000000E+00  1.50000000E+00  1.50000000E+00  1.50000000E+00  1.55000000E+00
  1.55000000E+00  1.55000000E+00  1.55000000E+00  1.55000000E+00  1.70000000E+00
  1.70000000E+00  1.70000000E+00  1.70000000E+00  1.70000000E+00  1.70000000E+00
  1.70000000E+00  1.70000000E+00  1.70000000E+00  1.70000000E+00  1.30000000E+00
  1.30000000E+00  1.30000000E+00  1.30000000E+00  1.30000000E+00  1.30000000E+00
  8.00000000E-01  8.00000000E-01  1.30000000E+00  8.00000000E-01  1.30000000E+00
  1.30000000E+00  1.30000000E+00
%FLAG SCREEN                                                                    
%FORMAT(5E16.8)                                                                 
  8.50000000E-01  8.50000000E-01  8.50000000E-01  8.50000000E-01  7.90000000E-01
  7.90000000E-01  7.90000000E-01  7.90000000E-01  7.90000000E-01  7.20000000E-01
  7.20000000E-01  7.20000000E-01  7.20000000E-01  7.20000000E-01  7.20000000E-01
  7.20000000E-01  7.20000000E-01  7.20000000E-01  7.20000000E-01  8.50000000E-01
  8.50000000E-01  8.50000000E-01  8.50000000E-01  8.50000000E-01  8.50000000E-01
  8.50000000E-01  8.50000000E-01  8.50000000E-01  8.50000000E-01  8.50000000E-01
  8.50000000E-01  8.50000000E-01
%FLAG IPOL                                                                      
%FORMAT(1I8)                                                                    
       0
