4946
    40
   0.3580000   1.4560000   0.6930000   2.7840000   2.1030000   1.9560000
   3.0010000  -0.4290000  -0.7360000   2.7510000   1.6410000   0.6030000
   2.9580000   0.1240000   0.6110000   3.2560000  -1.8630000  -0.7020000
   1.4260000   2.0650000  -0.0260000   3.2870000  -2.4290000  -2.1190000
   2.1840000  -2.5500000   0.1390000  -0.7850000   1.1880000  -0.0060000
  -1.6140000   0.1070000   0.3360000  -2.7870000  -0.1300000  -0.4190000
  -1.1080000   2.0230000  -1.0760000  -1.3040000  -0.7440000   1.4090000
  -3.0970000   0.7210000  -1.4930000  -2.2620000   1.7900000  -1.8180000
  -3.6160000  -1.2110000  -0.0780000  -2.1390000  -1.8130000   1.7340000
  -3.2930000  -2.0460000   0.9910000   3.5800000   2.1250000   0.0740000
   2.1550000  -0.3050000   1.2180000   3.8940000  -0.0930000   1.1430000
   4.2370000  -2.0560000  -0.2490000   3.7260000   0.0380000  -1.2800000
   1.4380000   1.7760000  -1.0850000   1.3150000   3.1530000   0.0540000
   3.5020000  -3.5030000  -2.1040000   2.3270000  -2.2850000  -2.6280000
   4.0650000  -1.9440000  -2.7190000   2.3200000  -2.3860000   1.2130000
   2.2290000  -3.6360000  -0.0050000   1.1740000  -2.2320000  -0.1450000
   2.6880000   3.0700000   1.9380000  -0.5120000   2.8890000  -1.3480000
  -0.4100000  -0.5900000   2.0090000  -3.9950000   0.5580000  -2.0860000
  -2.5180000   2.4450000  -2.6460000  -4.5230000  -1.4130000  -0.6450000
  -1.8880000  -2.4640000   2.5660000  -3.9430000  -2.8790000   1.2450000
