; propranolol_GMX_OPLS.itp created by acpype (v: 2023.10.27) on Mon Feb  9 17:56:03 2026

; For OPLS atomtypes manual fine tuning
; AC_at:OPLS_at:OPLScode: Possible_Alternatives (see ffoplsaa.atp and ffoplsaanb.itp)
; os:x:opls_x: []
; oh:OH:opls_154: ['167']
; n7:x:opls_x: []
; c3:CT:opls_135: ['136', '137', '149', '157', '158', '206', '209', '210', '223B', '224B', '245', '246', '274', '283', '284', '285', '292', '292B', '293B', '296', '307', '308', '505']
; ca:CA:opls_145: ['166', '501', '502']
; h1:HC:opls_140: []
; hn:H:opls_240: ['241', '290', '301', '304', '310', '504', '513']
; hc:HC:opls_140: []
; ho:HO:opls_155: ['168']
; ha:HA:opls_146: []

[ moleculetype ]
;name            nrexcl
 propranolol      3

[ atoms ]
;   nr  type  resi  res  atom  cgnr     charge      mass       ; qtot   bond_type
     1 opls_x     1   UNL     O    1    -0.346900      0.00000 ; qtot -0.347  x   
     2 opls_154     1   UNL    O1    2    -0.593800     15.99940 ; qtot -0.941  OH  
     3 opls_x     1   UNL     N    3    -0.824200      0.00000 ; qtot -1.765  x   
     4 opls_135     1   UNL     C    4     0.144100     12.01100 ; qtot -1.621  CT  
     5 opls_135     1   UNL    C1    5     0.125800     12.01100 ; qtot -1.495  CT  
     6 opls_135     1   UNL    C2    6     0.176500     12.01100 ; qtot -1.318  CT  
     7 opls_135     1   UNL    C3    7     0.096400     12.01100 ; qtot -1.222  CT  
     8 opls_135     1   UNL    C4    8    -0.095100     12.01100 ; qtot -1.317  CT  
     9 opls_135     1   UNL    C5    9    -0.095100     12.01100 ; qtot -1.412  CT  
    10 opls_145     1   UNL    C6   10     0.149100     12.01100 ; qtot -1.263  CA  
    11 opls_145     1   UNL    C7   11    -0.054000     12.01100 ; qtot -1.317  CA  
    12 opls_145     1   UNL    C8   12    -0.011000     12.01100 ; qtot -1.328  CA  
    13 opls_145     1   UNL    C9   13    -0.216000     12.01100 ; qtot -1.544  CA  
    14 opls_145     1   UNL   C10   14    -0.095000     12.01100 ; qtot -1.639  CA  
    15 opls_145     1   UNL   C11   15    -0.153000     12.01100 ; qtot -1.792  CA  
    16 opls_145     1   UNL   C12   16    -0.091000     12.01100 ; qtot -1.883  CA  
    17 opls_145     1   UNL   C13   17    -0.128000     12.01100 ; qtot -2.011  CA  
    18 opls_145     1   UNL   C14   18    -0.140000     12.01100 ; qtot -2.151  CA  
    19 opls_145     1   UNL   C15   19    -0.117000     12.01100 ; qtot -2.268  CA  
    20 opls_140     1   UNL     H   20     0.079700      1.00800 ; qtot -2.188  HC  
    21 opls_140     1   UNL    H1   21     0.045700      1.00800 ; qtot -2.143  HC  
    22 opls_140     1   UNL    H2   22     0.045700      1.00800 ; qtot -2.097  HC  
    23 opls_140     1   UNL    H3   23     0.019700      1.00800 ; qtot -2.077  HC  
    24 opls_240     1   UNL    H4   24     0.357800      1.00800 ; qtot -1.720  H   
    25 opls_140     1   UNL    H5   25     0.060200      1.00800 ; qtot -1.659  HC  
    26 opls_140     1   UNL    H6   26     0.060200      1.00800 ; qtot -1.599  HC  
    27 opls_140     1   UNL    H7   27     0.039700      1.00800 ; qtot -1.559  HC  
    28 opls_140     1   UNL    H8   28     0.039700      1.00800 ; qtot -1.520  HC  
    29 opls_140     1   UNL    H9   29     0.039700      1.00800 ; qtot -1.480  HC  
    30 opls_140     1   UNL   H10   30     0.039700      1.00800 ; qtot -1.440  HC  
    31 opls_140     1   UNL   H11   31     0.039700      1.00800 ; qtot -1.401  HC  
    32 opls_140     1   UNL   H12   32     0.039700      1.00800 ; qtot -1.361  HC  
    33 opls_155     1   UNL   H13   33     0.414000      1.00800 ; qtot -0.947  HO  
    34 opls_146     1   UNL   H14   34     0.140000      1.00800 ; qtot -0.807  HA  
    35 opls_146     1   UNL   H15   35     0.141000      1.00800 ; qtot -0.666  HA  
    36 opls_146     1   UNL   H16   36     0.134000      1.00800 ; qtot -0.532  HA  
    37 opls_146     1   UNL   H17   37     0.133000      1.00800 ; qtot -0.399  HA  
    38 opls_146     1   UNL   H18   38     0.134000      1.00800 ; qtot -0.265  HA  
    39 opls_146     1   UNL   H19   39     0.133000      1.00800 ; qtot -0.132  HA  
    40 opls_146     1   UNL   H20   40     0.132000      1.00800 ; qtot  0.000  HA  

[ bonds ]
;   ai     aj funct   r             k
     1      7   1 ;    1.4273e-01    2.3620e+05 ;      O - C3          x - CT    
     1     10   1 ;    1.3688e-01    2.8731e+05 ;      O - C6          x - CA    
     2      4   1 ;    1.4242e-01    2.3861e+05 ;     O1 - C          OH - CT    
     2     33   1 ;    9.7250e-02    4.4811e+05 ;     O1 - H13        OH - HO    
     3      5   1 ;    1.4630e-01    2.1382e+05 ;      N - C1          x - CT    
     3      6   1 ;    1.4630e-01    2.1382e+05 ;      N - C2          x - CT    
     3     24   1 ;    1.0195e-01    3.8497e+05 ;      N - H4          x - H     
     4      5   1 ;    1.5354e-01    1.9154e+05 ;      C - C1         CT - CT    
     4      7   1 ;    1.5354e-01    1.9154e+05 ;      C - C3         CT - CT    
     4     20   1 ;    1.0969e-01    2.8804e+05 ;      C - H          CT - HC    
     5     21   1 ;    1.0969e-01    2.8804e+05 ;     C1 - H1         CT - HC    
     5     22   1 ;    1.0969e-01    2.8804e+05 ;     C1 - H2         CT - HC    
     6      8   1 ;    1.5354e-01    1.9154e+05 ;     C2 - C4         CT - CT    
     6      9   1 ;    1.5354e-01    1.9154e+05 ;     C2 - C5         CT - CT    
     6     23   1 ;    1.0969e-01    2.8804e+05 ;     C2 - H3         CT - HC    
     7     25   1 ;    1.0969e-01    2.8804e+05 ;     C3 - H5         CT - HC    
     7     26   1 ;    1.0969e-01    2.8804e+05 ;     C3 - H6         CT - HC    
     8     27   1 ;    1.0962e-01    2.8891e+05 ;     C4 - H7         CT - HC    
     8     28   1 ;    1.0962e-01    2.8891e+05 ;     C4 - H8         CT - HC    
     8     29   1 ;    1.0962e-01    2.8891e+05 ;     C4 - H9         CT - HC    
     9     30   1 ;    1.0962e-01    2.8891e+05 ;     C5 - H10        CT - HC    
     9     31   1 ;    1.0962e-01    2.8891e+05 ;     C5 - H11        CT - HC    
     9     32   1 ;    1.0962e-01    2.8891e+05 ;     C5 - H12        CT - HC    
    10     11   1 ;    1.3986e-01    2.9644e+05 ;     C6 - C7         CA - CA    
    10     13   1 ;    1.3986e-01    2.9644e+05 ;     C6 - C9         CA - CA    
    11     12   1 ;    1.3986e-01    2.9644e+05 ;     C7 - C8         CA - CA    
    11     14   1 ;    1.3986e-01    2.9644e+05 ;     C7 - C10        CA - CA    
    12     15   1 ;    1.3986e-01    2.9644e+05 ;     C8 - C11        CA - CA    
    12     17   1 ;    1.3986e-01    2.9644e+05 ;     C8 - C13        CA - CA    
    13     16   1 ;    1.3986e-01    2.9644e+05 ;     C9 - C12        CA - CA    
    13     34   1 ;    1.0860e-01    3.0183e+05 ;     C9 - H14        CA - HA    
    14     18   1 ;    1.3986e-01    2.9644e+05 ;    C10 - C14        CA - CA    
    14     35   1 ;    1.0860e-01    3.0183e+05 ;    C10 - H15        CA - HA    
    15     16   1 ;    1.3986e-01    2.9644e+05 ;    C11 - C12        CA - CA    
    15     36   1 ;    1.0860e-01    3.0183e+05 ;    C11 - H16        CA - HA    
    16     37   1 ;    1.0860e-01    3.0183e+05 ;    C12 - H17        CA - HA    
    17     19   1 ;    1.3986e-01    2.9644e+05 ;    C13 - C15        CA - CA    
    17     38   1 ;    1.0860e-01    3.0183e+05 ;    C13 - H18        CA - HA    
    18     19   1 ;    1.3986e-01    2.9644e+05 ;    C14 - C15        CA - CA    
    18     39   1 ;    1.0860e-01    3.0183e+05 ;    C14 - H19        CA - HA    
    19     40   1 ;    1.0860e-01    3.0183e+05 ;    C15 - H20        CA - HA    

[ pairs ]
;   ai     aj    funct
     1      2      1 ;      O - O1    
     1      5      1 ;      O - C1    
     1     12      1 ;      O - C8    
     1     14      1 ;      O - C10   
     1     16      1 ;      O - C12   
     1     20      1 ;      O - H     
     1     34      1 ;      O - H14   
     2      3      1 ;     O1 - N     
     2     21      1 ;     O1 - H1    
     2     22      1 ;     O1 - H2    
     2     25      1 ;     O1 - H5    
     2     26      1 ;     O1 - H6    
     3      7      1 ;      N - C3    
     3     20      1 ;      N - H     
     3     27      1 ;      N - H7    
     3     28      1 ;      N - H8    
     3     29      1 ;      N - H9    
     3     30      1 ;      N - H10   
     3     31      1 ;      N - H11   
     3     32      1 ;      N - H12   
     4      6      1 ;      C - C2    
     4     24      1 ;      C - H4    
     5      8      1 ;     C1 - C4    
     5      9      1 ;     C1 - C5    
     5     23      1 ;     C1 - H3    
     5     25      1 ;     C1 - H5    
     5     26      1 ;     C1 - H6    
     5     33      1 ;     C1 - H13   
     6     21      1 ;     C2 - H1    
     6     22      1 ;     C2 - H2    
     7     11      1 ;     C3 - C7    
     7     13      1 ;     C3 - C9    
     7     21      1 ;     C3 - H1    
     7     22      1 ;     C3 - H2    
     7     33      1 ;     C3 - H13   
     8     24      1 ;     C4 - H4    
     8     30      1 ;     C4 - H10   
     8     31      1 ;     C4 - H11   
     8     32      1 ;     C4 - H12   
     9     24      1 ;     C5 - H4    
     9     27      1 ;     C5 - H7    
     9     28      1 ;     C5 - H8    
     9     29      1 ;     C5 - H9    
    10      4      1 ;     C6 - C     
    10     15      1 ;     C6 - C11   
    10     17      1 ;     C6 - C13   
    10     18      1 ;     C6 - C14   
    10     25      1 ;     C6 - H5    
    10     26      1 ;     C6 - H6    
    10     35      1 ;     C6 - H15   
    10     37      1 ;     C6 - H17   
    11     16      1 ;     C7 - C12   
    11     19      1 ;     C7 - C15   
    11     34      1 ;     C7 - H14   
    11     36      1 ;     C7 - H16   
    11     38      1 ;     C7 - H18   
    11     39      1 ;     C7 - H19   
    12     13      1 ;     C8 - C9    
    12     18      1 ;     C8 - C14   
    12     35      1 ;     C8 - H15   
    12     37      1 ;     C8 - H17   
    12     40      1 ;     C8 - H20   
    13     14      1 ;     C9 - C10   
    13     36      1 ;     C9 - H16   
    14     15      1 ;    C10 - C11   
    14     17      1 ;    C10 - C13   
    14     40      1 ;    C10 - H20   
    15     19      1 ;    C11 - C15   
    15     34      1 ;    C11 - H14   
    15     38      1 ;    C11 - H18   
    16     17      1 ;    C12 - C13   
    17     36      1 ;    C13 - H16   
    17     39      1 ;    C13 - H19   
    18     38      1 ;    C14 - H18   
    19     35      1 ;    C15 - H15   
    20     21      1 ;      H - H1    
    20     22      1 ;      H - H2    
    20     25      1 ;      H - H5    
    20     26      1 ;      H - H6    
    20     33      1 ;      H - H13   
    21     24      1 ;     H1 - H4    
    22     24      1 ;     H2 - H4    
    23     24      1 ;     H3 - H4    
    23     27      1 ;     H3 - H7    
    23     28      1 ;     H3 - H8    
    23     29      1 ;     H3 - H9    
    23     30      1 ;     H3 - H10   
    23     31      1 ;     H3 - H11   
    23     32      1 ;     H3 - H12   
    34     37      1 ;    H14 - H17   
    35     39      1 ;    H15 - H19   
    36     37      1 ;    H16 - H17   
    38     40      1 ;    H18 - H20   
    39     40      1 ;    H19 - H20   

[ angles ]
;   ai     aj     ak    funct   theta         cth
     1      7      4      1 ;    1.0762e+02    6.4802e+02 ;      O - C3   - C         x -   CT - CT  
     1      7     25      1 ;    1.1034e+02    4.7028e+02 ;      O - C3   - H5        x -   CT - HC  
     1      7     26      1 ;    1.1034e+02    4.7028e+02 ;      O - C3   - H6        x -   CT - HC  
     1     10     11      1 ;    1.1911e+02    6.6107e+02 ;      O - C6   - C7        x -   CA - CA  
     1     10     13      1 ;    1.1911e+02    6.6107e+02 ;      O - C6   - C9        x -   CA - CA  
     2      4      5      1 ;    1.0966e+02    6.4258e+02 ;     O1 - C    - C1       OH -   CT - CT  
     2      4      7      1 ;    1.0966e+02    6.4258e+02 ;     O1 - C    - C3       OH -   CT - CT  
     2      4     20      1 ;    1.1038e+02    4.7103e+02 ;     O1 - C    - H        OH -   CT - HC  
     3      5      4      1 ;    1.1022e+02    5.4994e+02 ;      N - C1   - C         x -   CT - CT  
     3      5     21      1 ;    1.1029e+02    3.9991e+02 ;      N - C1   - H1        x -   CT - HC  
     3      5     22      1 ;    1.1029e+02    3.9991e+02 ;      N - C1   - H2        x -   CT - HC  
     3      6      8      1 ;    1.1022e+02    5.4994e+02 ;      N - C2   - C4        x -   CT - CT  
     3      6      9      1 ;    1.1022e+02    5.4994e+02 ;      N - C2   - C5        x -   CT - CT  
     3      6     23      1 ;    1.1029e+02    3.9991e+02 ;      N - C2   - H3        x -   CT - HC  
     4      2     33      1 ;    1.0739e+02    5.4501e+02 ;      C - O1   - H13      CT -   OH - HO  
     4      5     21      1 ;    1.0959e+02    3.6217e+02 ;      C - C1   - H1       CT -   CT - HC  
     4      5     22      1 ;    1.0959e+02    3.6217e+02 ;      C - C1   - H2       CT -   CT - HC  
     4      7     25      1 ;    1.0959e+02    3.6217e+02 ;      C - C3   - H5       CT -   CT - HC  
     4      7     26      1 ;    1.0959e+02    3.6217e+02 ;      C - C3   - H6       CT -   CT - HC  
     5      3      6      1 ;    1.1458e+02    6.4425e+02 ;     C1 - N    - C2       CT -    x - CT  
     5      3     24      1 ;    1.0886e+02    4.7229e+02 ;     C1 - N    - H4       CT -    x - H   
     5      4      7      1 ;    1.1263e+02    5.0099e+02 ;     C1 - C    - C3       CT -   CT - CT  
     5      4     20      1 ;    1.0959e+02    3.6217e+02 ;     C1 - C    - H        CT -   CT - HC  
     6      3     24      1 ;    1.0886e+02    4.7229e+02 ;     C2 - N    - H4       CT -    x - H   
     6      8     27      1 ;    1.0968e+02    3.6208e+02 ;     C2 - C4   - H7       CT -   CT - HC  
     6      8     28      1 ;    1.0968e+02    3.6208e+02 ;     C2 - C4   - H8       CT -   CT - HC  
     6      8     29      1 ;    1.0968e+02    3.6208e+02 ;     C2 - C4   - H9       CT -   CT - HC  
     6      9     30      1 ;    1.0968e+02    3.6208e+02 ;     C2 - C5   - H10      CT -   CT - HC  
     6      9     31      1 ;    1.0968e+02    3.6208e+02 ;     C2 - C5   - H11      CT -   CT - HC  
     6      9     32      1 ;    1.0968e+02    3.6208e+02 ;     C2 - C5   - H12      CT -   CT - HC  
     7      1     10      1 ;    1.1839e+02    7.3856e+02 ;     C3 - O    - C6       CT -    x - CA  
     7      4     20      1 ;    1.0959e+02    3.6217e+02 ;     C3 - C    - H        CT -   CT - HC  
     8      6      9      1 ;    1.1263e+02    5.0099e+02 ;     C4 - C2   - C5       CT -   CT - CT  
     8      6     23      1 ;    1.0959e+02    3.6217e+02 ;     C4 - C2   - H3       CT -   CT - HC  
     9      6     23      1 ;    1.0959e+02    3.6217e+02 ;     C5 - C2   - H3       CT -   CT - HC  
    10     11     12      1 ;    1.2002e+02    5.3279e+02 ;     C6 - C7   - C8       CA -   CA - CA  
    10     11     14      1 ;    1.2002e+02    5.3279e+02 ;     C6 - C7   - C10      CA -   CA - CA  
    10     13     16      1 ;    1.2002e+02    5.3279e+02 ;     C6 - C9   - C12      CA -   CA - CA  
    10     13     34      1 ;    1.1988e+02    3.7572e+02 ;     C6 - C9   - H14      CA -   CA - HA  
    11     10     13      1 ;    1.2002e+02    5.3279e+02 ;     C7 - C6   - C9       CA -   CA - CA  
    11     12     15      1 ;    1.2002e+02    5.3279e+02 ;     C7 - C8   - C11      CA -   CA - CA  
    11     12     17      1 ;    1.2002e+02    5.3279e+02 ;     C7 - C8   - C13      CA -   CA - CA  
    11     14     18      1 ;    1.2002e+02    5.3279e+02 ;     C7 - C10  - C14      CA -   CA - CA  
    11     14     35      1 ;    1.1988e+02    3.7572e+02 ;     C7 - C10  - H15      CA -   CA - HA  
    12     11     14      1 ;    1.2002e+02    5.3279e+02 ;     C8 - C7   - C10      CA -   CA - CA  
    12     15     16      1 ;    1.2002e+02    5.3279e+02 ;     C8 - C11  - C12      CA -   CA - CA  
    12     15     36      1 ;    1.1988e+02    3.7572e+02 ;     C8 - C11  - H16      CA -   CA - HA  
    12     17     19      1 ;    1.2002e+02    5.3279e+02 ;     C8 - C13  - C15      CA -   CA - CA  
    12     17     38      1 ;    1.1988e+02    3.7572e+02 ;     C8 - C13  - H18      CA -   CA - HA  
    13     16     15      1 ;    1.2002e+02    5.3279e+02 ;     C9 - C12  - C11      CA -   CA - CA  
    13     16     37      1 ;    1.1988e+02    3.7572e+02 ;     C9 - C12  - H17      CA -   CA - HA  
    14     18     19      1 ;    1.2002e+02    5.3279e+02 ;    C10 - C14  - C15      CA -   CA - CA  
    14     18     39      1 ;    1.1988e+02    3.7572e+02 ;    C10 - C14  - H19      CA -   CA - HA  
    15     12     17      1 ;    1.2002e+02    5.3279e+02 ;    C11 - C8   - C13      CA -   CA - CA  
    15     16     37      1 ;    1.1988e+02    3.7572e+02 ;    C11 - C12  - H17      CA -   CA - HA  
    16     13     34      1 ;    1.1988e+02    3.7572e+02 ;    C12 - C9   - H14      CA -   CA - HA  
    16     15     36      1 ;    1.1988e+02    3.7572e+02 ;    C12 - C11  - H16      CA -   CA - HA  
    17     19     18      1 ;    1.2002e+02    5.3279e+02 ;    C13 - C15  - C14      CA -   CA - CA  
    17     19     40      1 ;    1.1988e+02    3.7572e+02 ;    C13 - C15  - H20      CA -   CA - HA  
    18     14     35      1 ;    1.1988e+02    3.7572e+02 ;    C14 - C10  - H15      CA -   CA - HA  
    18     19     40      1 ;    1.1988e+02    3.7572e+02 ;    C14 - C15  - H20      CA -   CA - HA  
    19     17     38      1 ;    1.1988e+02    3.7572e+02 ;    C15 - C13  - H18      CA -   CA - HA  
    19     18     39      1 ;    1.1988e+02    3.7572e+02 ;    C15 - C14  - H19      CA -   CA - HA  
    21      5     22      1 ;    1.0855e+02    2.9824e+02 ;     H1 - C1   - H2       HC -   CT - HC  
    25      7     26      1 ;    1.0855e+02    2.9824e+02 ;     H5 - C3   - H6       HC -   CT - HC  
    27      8     28      1 ;    1.0773e+02    2.9957e+02 ;     H7 - C4   - H8       HC -   CT - HC  
    27      8     29      1 ;    1.0773e+02    2.9957e+02 ;     H7 - C4   - H9       HC -   CT - HC  
    28      8     29      1 ;    1.0773e+02    2.9957e+02 ;     H8 - C4   - H9       HC -   CT - HC  
    30      9     31      1 ;    1.0773e+02    2.9957e+02 ;    H10 - C5   - H11      HC -   CT - HC  
    30      9     32      1 ;    1.0773e+02    2.9957e+02 ;    H10 - C5   - H12      HC -   CT - HC  
    31      9     32      1 ;    1.0773e+02    2.9957e+02 ;    H11 - C5   - H12      HC -   CT - HC  

[ dihedrals ] ; propers
; for gromacs 4.5 or higher, using funct 9
;    i      j      k      l   func   phase     kd      pn
     1      7      4      2      9 ;     0.00   0.65084   3 ;      O-    C3-     C-    O1
     1      7      4      5      9 ;     0.00   0.65084   3 ;      O-    C3-     C-    C1
     1      7      4     20      9 ;     0.00   0.00000   0 ;      O-    C3-     C-     H
     1      7      4     20      9 ;     0.00   1.04600   1 ;      O-    C3-     C-     H
     1     10     11     12      9 ;   180.00  15.16700   2 ;      O-    C6-    C7-    C8
     1     10     11     14      9 ;   180.00  15.16700   2 ;      O-    C6-    C7-   C10
     1     10     13     16      9 ;   180.00  15.16700   2 ;      O-    C6-    C9-   C12
     1     10     13     34      9 ;   180.00  15.16700   2 ;      O-    C6-    C9-   H14
     2      4      5      3      9 ;     0.00   0.65084   3 ;     O1-     C-    C1-     N
     2      4      5     21      9 ;     0.00   0.00000   0 ;     O1-     C-    C1-    H1
     2      4      5     21      9 ;     0.00   1.04600   1 ;     O1-     C-    C1-    H1
     2      4      5     22      9 ;     0.00   0.00000   0 ;     O1-     C-    C1-    H2
     2      4      5     22      9 ;     0.00   1.04600   1 ;     O1-     C-    C1-    H2
     2      4      7     25      9 ;     0.00   0.00000   0 ;     O1-     C-    C3-    H5
     2      4      7     25      9 ;     0.00   1.04600   1 ;     O1-     C-    C3-    H5
     2      4      7     26      9 ;     0.00   0.00000   0 ;     O1-     C-    C3-    H6
     2      4      7     26      9 ;     0.00   1.04600   1 ;     O1-     C-    C3-    H6
     3      5      4      7      9 ;     0.00   0.87864   3 ;      N-    C1-     C-    C3
     3      5      4     20      9 ;     0.00   0.65084   3 ;      N-    C1-     C-     H
     3      6      8     27      9 ;     0.00   0.41840   3 ;      N-    C2-    C4-    H7
     3      6      8     28      9 ;     0.00   0.41840   3 ;      N-    C2-    C4-    H8
     3      6      8     29      9 ;     0.00   0.41840   3 ;      N-    C2-    C4-    H9
     3      6      9     30      9 ;     0.00   0.41840   3 ;      N-    C2-    C5-   H10
     3      6      9     31      9 ;     0.00   0.41840   3 ;      N-    C2-    C5-   H11
     3      6      9     32      9 ;     0.00   0.41840   3 ;      N-    C2-    C5-   H12
     4      5      3      6      9 ;     0.00   0.58576   3 ;      C-    C1-     N-    C2
     4      5      3     24      9 ;     0.00   0.90793   3 ;      C-    C1-     N-    H4
     5      3      6      8      9 ;     0.00   0.58576   3 ;     C1-     N-    C2-    C4
     5      3      6      9      9 ;     0.00   0.58576   3 ;     C1-     N-    C2-    C5
     5      3      6     23      9 ;     0.00   0.89956   3 ;     C1-     N-    C2-    H3
     5      4      2     33      9 ;     0.00   0.25104   3 ;     C1-     C-    O1-   H13
     5      4      7     25      9 ;     0.00   0.65084   3 ;     C1-     C-    C3-    H5
     5      4      7     26      9 ;     0.00   0.65084   3 ;     C1-     C-    C3-    H6
     6      3      5     21      9 ;     0.00   0.89956   3 ;     C2-     N-    C1-    H1
     6      3      5     22      9 ;     0.00   0.89956   3 ;     C2-     N-    C1-    H2
     7      1     10     11      9 ;   180.00   6.94544   2 ;     C3-     O-    C6-    C7
     7      1     10     13      9 ;   180.00   6.94544   2 ;     C3-     O-    C6-    C9
     7      4      2     33      9 ;     0.00   0.25104   3 ;     C3-     C-    O1-   H13
     7      4      5     21      9 ;     0.00   0.65084   3 ;     C3-     C-    C1-    H1
     7      4      5     22      9 ;     0.00   0.65084   3 ;     C3-     C-    C1-    H2
     8      6      3     24      9 ;     0.00   0.90793   3 ;     C4-    C2-     N-    H4
     8      6      9     30      9 ;     0.00   0.54392   3 ;     C4-    C2-    C5-   H10
     8      6      9     31      9 ;     0.00   0.54392   3 ;     C4-    C2-    C5-   H11
     8      6      9     32      9 ;     0.00   0.54392   3 ;     C4-    C2-    C5-   H12
     9      6      3     24      9 ;     0.00   0.90793   3 ;     C5-    C2-     N-    H4
     9      6      8     27      9 ;     0.00   0.54392   3 ;     C5-    C2-    C4-    H7
     9      6      8     28      9 ;     0.00   0.54392   3 ;     C5-    C2-    C4-    H8
     9      6      8     29      9 ;     0.00   0.54392   3 ;     C5-    C2-    C4-    H9
    10      1      7      4      9 ;     0.00   1.60387   3 ;     C6-     O-    C3-     C
    10      1      7     25      9 ;     0.00   1.60387   3 ;     C6-     O-    C3-    H5
    10      1      7     26      9 ;     0.00   1.60387   3 ;     C6-     O-    C3-    H6
    10     11     12     15      9 ;   180.00  15.16700   2 ;     C6-    C7-    C8-   C11
    10     11     12     17      9 ;   180.00  15.16700   2 ;     C6-    C7-    C8-   C13
    10     11     14     18      9 ;   180.00  15.16700   2 ;     C6-    C7-   C10-   C14
    10     11     14     35      9 ;   180.00  15.16700   2 ;     C6-    C7-   C10-   H15
    10     13     16     15      9 ;   180.00  15.16700   2 ;     C6-    C9-   C12-   C11
    10     13     16     37      9 ;   180.00  15.16700   2 ;     C6-    C9-   C12-   H17
    11     10     13     16      9 ;   180.00  15.16700   2 ;     C7-    C6-    C9-   C12
    11     10     13     34      9 ;   180.00  15.16700   2 ;     C7-    C6-    C9-   H14
    11     12     15     16      9 ;   180.00  15.16700   2 ;     C7-    C8-   C11-   C12
    11     12     15     36      9 ;   180.00  15.16700   2 ;     C7-    C8-   C11-   H16
    11     12     17     19      9 ;   180.00  15.16700   2 ;     C7-    C8-   C13-   C15
    11     12     17     38      9 ;   180.00  15.16700   2 ;     C7-    C8-   C13-   H18
    11     14     18     19      9 ;   180.00  15.16700   2 ;     C7-   C10-   C14-   C15
    11     14     18     39      9 ;   180.00  15.16700   2 ;     C7-   C10-   C14-   H19
    12     11     10     13      9 ;   180.00  15.16700   2 ;     C8-    C7-    C6-    C9
    12     11     14     18      9 ;   180.00  15.16700   2 ;     C8-    C7-   C10-   C14
    12     11     14     35      9 ;   180.00  15.16700   2 ;     C8-    C7-   C10-   H15
    12     15     16     13      9 ;   180.00  15.16700   2 ;     C8-   C11-   C12-    C9
    12     15     16     37      9 ;   180.00  15.16700   2 ;     C8-   C11-   C12-   H17
    12     17     19     18      9 ;   180.00  15.16700   2 ;     C8-   C13-   C15-   C14
    12     17     19     40      9 ;   180.00  15.16700   2 ;     C8-   C13-   C15-   H20
    13     10     11     14      9 ;   180.00  15.16700   2 ;     C9-    C6-    C7-   C10
    13     16     15     36      9 ;   180.00  15.16700   2 ;     C9-   C12-   C11-   H16
    14     11     12     15      9 ;   180.00  15.16700   2 ;    C10-    C7-    C8-   C11
    14     11     12     17      9 ;   180.00  15.16700   2 ;    C10-    C7-    C8-   C13
    14     18     19     17      9 ;   180.00  15.16700   2 ;    C10-   C14-   C15-   C13
    14     18     19     40      9 ;   180.00  15.16700   2 ;    C10-   C14-   C15-   H20
    15     12     17     19      9 ;   180.00  15.16700   2 ;    C11-    C8-   C13-   C15
    15     12     17     38      9 ;   180.00  15.16700   2 ;    C11-    C8-   C13-   H18
    15     16     13     34      9 ;   180.00  15.16700   2 ;    C11-   C12-    C9-   H14
    16     15     12     17      9 ;   180.00  15.16700   2 ;    C12-   C11-    C8-   C13
    17     12     15     36      9 ;   180.00  15.16700   2 ;    C13-    C8-   C11-   H16
    17     19     18     39      9 ;   180.00  15.16700   2 ;    C13-   C15-   C14-   H19
    18     19     17     38      9 ;   180.00  15.16700   2 ;    C14-   C15-   C13-   H18
    19     18     14     35      9 ;   180.00  15.16700   2 ;    C15-   C14-   C10-   H15
    20      4      2     33      9 ;     0.00   0.51463   3 ;      H-     C-    O1-   H13
    20      4      5     21      9 ;     0.00   0.65084   3 ;      H-     C-    C1-    H1
    20      4      5     22      9 ;     0.00   0.65084   3 ;      H-     C-    C1-    H2
    20      4      7     25      9 ;     0.00   0.65084   3 ;      H-     C-    C3-    H5
    20      4      7     26      9 ;     0.00   0.65084   3 ;      H-     C-    C3-    H6
    21      5      3     24      9 ;     0.00   1.25520   3 ;     H1-    C1-     N-    H4
    22      5      3     24      9 ;     0.00   1.25520   3 ;     H2-    C1-     N-    H4
    23      6      3     24      9 ;     0.00   1.25520   3 ;     H3-    C2-     N-    H4
    23      6      8     27      9 ;     0.00   0.65084   3 ;     H3-    C2-    C4-    H7
    23      6      8     28      9 ;     0.00   0.65084   3 ;     H3-    C2-    C4-    H8
    23      6      8     29      9 ;     0.00   0.65084   3 ;     H3-    C2-    C4-    H9
    23      6      9     30      9 ;     0.00   0.65084   3 ;     H3-    C2-    C5-   H10
    23      6      9     31      9 ;     0.00   0.65084   3 ;     H3-    C2-    C5-   H11
    23      6      9     32      9 ;     0.00   0.65084   3 ;     H3-    C2-    C5-   H12
    34     13     16     37      9 ;   180.00  15.16700   2 ;    H14-    C9-   C12-   H17
    35     14     18     39      9 ;   180.00  15.16700   2 ;    H15-   C10-   C14-   H19
    36     15     16     37      9 ;   180.00  15.16700   2 ;    H16-   C11-   C12-   H17
    38     17     19     40      9 ;   180.00  15.16700   2 ;    H18-   C13-   C15-   H20
    39     18     19     40      9 ;   180.00  15.16700   2 ;    H19-   C14-   C15-   H20

[ dihedrals ] ; impropers
; treated as propers in GROMACS to use correct AMBER analytical function
;    i      j      k      l   func   phase     kd      pn
     1     10     13     11      4 ;   180.00   4.60240   2 ;      O-    C6-    C9-    C7
    10     12     11     14      4 ;   180.00   4.60240   2 ;     C6-    C8-    C7-   C10
    10     16     13     34      4 ;   180.00   4.60240   2 ;     C6-   C12-    C9-   H14
    11     15     12     17      4 ;   180.00   4.60240   2 ;     C7-   C11-    C8-   C13
    11     18     14     35      4 ;   180.00   4.60240   2 ;     C7-   C14-   C10-   H15
    12     16     15     36      4 ;   180.00   4.60240   2 ;     C8-   C12-   C11-   H16
    12     19     17     38      4 ;   180.00   4.60240   2 ;     C8-   C15-   C13-   H18
    13     15     16     37      4 ;   180.00   4.60240   2 ;     C9-   C11-   C12-   H17
    14     19     18     39      4 ;   180.00   4.60240   2 ;    C10-   C15-   C14-   H19
    17     18     19     40      4 ;   180.00   4.60240   2 ;    C13-   C14-   C15-   H20
