; propranolol_GMX.top created by acpype (v: 2023.10.27) on Mon Feb  9 17:56:03 2026

[ defaults ]
; nbfunc        comb-rule       gen-pairs       fudgeLJ fudgeQQ
1               2               yes             0.5     0.8333333333

; Include propranolol_GMX.itp topology
#include "propranolol_GMX.itp"

; Ligand position restraints
#ifdef POSRES_LIG
#include "posre_propranolol.itp"
#endif

[ system ]
 propranolol

[ molecules ]
; Compound        nmols
 propranolol      1     
