propranolol_GMX.gro created by acpype (v: 2023.10.27) on Mon Feb  9 17:56:03 2026
 40
    1  UNL    O    1   0.036   0.146   0.069
    1  UNL   O1    2   0.278   0.210   0.196
    1  UNL    N    3   0.300  -0.043  -0.074
    1  UNL    C    4   0.275   0.164   0.060
    1  UNL   C1    5   0.296   0.012   0.061
    1  UNL   C2    6   0.326  -0.186  -0.070
    1  UNL   C3    7   0.143   0.207  -0.003
    1  UNL   C4    8   0.329  -0.243  -0.212
    1  UNL   C5    9   0.218  -0.255   0.014
    1  UNL   C6   10  -0.079   0.119  -0.001
    1  UNL   C7   11  -0.161   0.011   0.034
    1  UNL   C8   12  -0.279  -0.013  -0.042
    1  UNL   C9   13  -0.111   0.202  -0.108
    1  UNL  C10   14  -0.130  -0.074   0.141
    1  UNL  C11   15  -0.310   0.072  -0.149
    1  UNL  C12   16  -0.226   0.179  -0.182
    1  UNL  C13   17  -0.362  -0.121  -0.008
    1  UNL  C14   18  -0.214  -0.181   0.173
    1  UNL  C15   19  -0.329  -0.205   0.099
    1  UNL    H   20   0.358   0.213   0.007
    1  UNL   H1   21   0.215  -0.030   0.122
    1  UNL   H2   22   0.389  -0.009   0.114
    1  UNL   H3   23   0.424  -0.206  -0.025
    1  UNL   H4   24   0.373   0.004  -0.128
    1  UNL   H5   25   0.144   0.178  -0.108
    1  UNL   H6   26   0.132   0.315   0.005
    1  UNL   H7   27   0.350  -0.350  -0.210
    1  UNL   H8   28   0.233  -0.229  -0.263
    1  UNL   H9   29   0.407  -0.194  -0.272
    1  UNL  H10   30   0.232  -0.239   0.121
    1  UNL  H11   31   0.223  -0.364  -0.001
    1  UNL  H12   32   0.117  -0.223  -0.014
    1  UNL  H13   33   0.269   0.307   0.194
    1  UNL  H14   34  -0.051   0.289  -0.135
    1  UNL  H15   35  -0.041  -0.059   0.201
    1  UNL  H16   36  -0.400   0.056  -0.209
    1  UNL  H17   37  -0.252   0.244  -0.265
    1  UNL  H18   38  -0.452  -0.141  -0.065
    1  UNL  H19   39  -0.189  -0.246   0.257
    1  UNL  H20   40  -0.394  -0.288   0.125
   17.52000    13.57800    10.57000
