%VERSION  VERSION_STAMP = V0001.000  DATE = 02/09/26  17:57:29                  
%FLAG TITLE                                                                     
%FORMAT(20a4)                                                                   
4946                                                                            
%FLAG POINTERS                                                                  
%FORMAT(10I8)                                                                   
      40      10      21      20      45      26      81      34       0       0
     213       1      20      26      34      11      18      16      10       0
       0       0       0       0       0       0       0       0      40       0
       0
%FLAG ATOM_NAME                                                                 
%FORMAT(20a4)                                                                   
O   O1  N   C   C1  C2  C3  C4  C5  C6  C7  C8  C9  C10 C11 C12 C13 C14 C15 H   
H1  H2  H3  H4  H5  H6  H7  H8  H9  H10 H11 H12 H13 H14 H15 H16 H17 H18 H19 H20 
%FLAG CHARGE                                                                    
%FORMAT(5E16.8)                                                                 
 -6.32131587E+00 -1.08204017E+01 -1.50005974E+01  2.62583343E+00  2.29236534E+00
  3.21623595E+00  1.75662972E+00 -1.73294073E+00 -1.73294073E+00  2.71694493E+00
 -9.84004200E-01 -2.00445300E-01 -3.93601680E+00 -1.73111850E+00 -2.78801190E+00
 -1.65822930E+00 -2.33245440E+00 -2.55112200E+00 -2.13200910E+00  1.45231731E+00
  8.32759110E-01  8.32759110E-01  3.58979310E-01  6.51993894E+00  1.09698246E+00
  1.09698246E+00  7.23425310E-01  7.23425310E-01  7.23425310E-01  7.23425310E-01
  7.23425310E-01  7.23425310E-01  7.54403220E+00  2.55112200E+00  2.56934430E+00
  2.44178820E+00  2.42356590E+00  2.44178820E+00  2.42356590E+00  2.40534360E+00
%FLAG ATOMIC_NUMBER                                                             
%FORMAT(10I8)                                                                   
       8       8       7       6       6       6       6       6       6       6
       6       6       6       6       6       6       6       6       6       1
       1       1       1       1       1       1       1       1       1       1
       1       1       1       1       1       1       1       1       1       1
%FLAG MASS                                                                      
%FORMAT(5E16.8)                                                                 
  1.60000000E+01  1.60000000E+01  1.40100000E+01  1.20100000E+01  1.20100000E+01
  1.20100000E+01  1.20100000E+01  1.20100000E+01  1.20100000E+01  1.20100000E+01
  1.20100000E+01  1.20100000E+01  1.20100000E+01  1.20100000E+01  1.20100000E+01
  1.20100000E+01  1.20100000E+01  1.20100000E+01  1.20100000E+01  1.00800000E+00
  1.00800000E+00  1.00800000E+00  1.00800000E+00  1.00800000E+00  1.00800000E+00
  1.00800000E+00  1.00800000E+00  1.00800000E+00  1.00800000E+00  1.00800000E+00
  1.00800000E+00  1.00800000E+00  1.00800000E+00  1.00800000E+00  1.00800000E+00
  1.00800000E+00  1.00800000E+00  1.00800000E+00  1.00800000E+00  1.00800000E+00
%FLAG ATOM_TYPE_INDEX                                                           
%FORMAT(10I8)                                                                   
       1       2       3       4       4       4       4       4       4       5
       5       5       5       5       5       5       5       5       5       6
       6       6       6       7       6       6       8       8       8       8
       8       8       9      10      10      10      10      10      10      10
%FLAG NUMBER_EXCLUDED_ATOMS                                                     
%FORMAT(10I8)                                                                   
      14      10      17      11      12      12       9       9       8      13
      13      12       6       7       7       4       6       5       4       5
       2       1       7       1       1       1       2       1       1       2
       1       1       1       1       1       1       1       1       1       1
%FLAG NONBONDED_PARM_INDEX                                                      
%FORMAT(10I8)                                                                   
       1       2       4       7      11      16      22      29      37      46
       2       3       5       8      12      17      23      30      38      47
       4       5       6       9      13      18      24      31      39      48
       7       8       9      10      14      19      25      32      40      49
      11      12      13      14      15      20      26      33      41      50
      16      17      18      19      20      21      27      34      42      51
      22      23      24      25      26      27      28      35      43      52
      29      30      31      32      33      34      35      36      44      53
      37      38      39      40      41      42      43      44      45      54
      46      47      48      49      50      51      52      53      54      55
%FLAG RESIDUE_LABEL                                                             
%FORMAT(20a4)                                                                   
UNL 
%FLAG RESIDUE_POINTER                                                           
%FORMAT(10I8)                                                                   
       1
%FLAG BOND_FORCE_CONSTANT                                                       
%FORMAT(5E16.8)                                                                 
  2.82270000E+02  3.43340000E+02  2.85150000E+02  5.35510000E+02  2.55520000E+02
  4.60050000E+02  2.28890000E+02  3.44220000E+02  3.45250000E+02  3.54250000E+02
  3.60690000E+02
%FLAG BOND_EQUIL_VALUE                                                          
%FORMAT(5E16.8)                                                                 
  1.42730000E+00  1.36880000E+00  1.42420000E+00  9.72500000E-01  1.46300000E+00
  1.01950000E+00  1.53540000E+00  1.09690000E+00  1.09620000E+00  1.39860000E+00
  1.08600000E+00
%FLAG ANGLE_FORCE_CONSTANT                                                      
%FORMAT(5E16.8)                                                                 
  7.74400000E+01  5.62000000E+01  7.90000000E+01  7.67900000E+01  5.62900000E+01
  6.57200000E+01  4.77900000E+01  6.51300000E+01  4.32800000E+01  7.69900000E+01
  5.64400000E+01  5.98700000E+01  4.32700000E+01  8.82600000E+01  6.36700000E+01
  4.49000000E+01  3.56400000E+01  3.58000000E+01
%FLAG ANGLE_EQUIL_VALUE                                                         
%FORMAT(5E16.8)                                                                 
  1.87832415E+00  1.92579712E+00  2.07886256E+00  1.91392888E+00  1.92649525E+00
  1.92370273E+00  1.92492446E+00  1.87430989E+00  1.91270715E+00  1.99979911E+00
  1.89996624E+00  1.96576518E+00  1.91427794E+00  2.06629619E+00  2.09474507E+00
  2.09230160E+00  1.89455572E+00  1.88024401E+00
%FLAG DIHEDRAL_FORCE_CONSTANT                                                   
%FORMAT(5E16.8)                                                                 
  1.55555556E-01  2.50000000E-01  0.00000000E+00  3.62500000E+00  2.10000000E-01
  1.00000000E-01  1.40000000E-01  2.17000000E-01  3.83333333E-01  2.15000000E-01
  6.00000000E-02  1.66000000E+00  1.30000000E-01  1.23000000E-01  3.00000000E-01
  1.10000000E+00
%FLAG DIHEDRAL_PERIODICITY                                                      
%FORMAT(5E16.8)                                                                 
  3.00000000E+00  1.00000000E+00  3.00000000E+00  2.00000000E+00  3.00000000E+00
  3.00000000E+00  3.00000000E+00  3.00000000E+00  3.00000000E+00  3.00000000E+00
  3.00000000E+00  2.00000000E+00  3.00000000E+00  3.00000000E+00  3.00000000E+00
  2.00000000E+00
%FLAG DIHEDRAL_PHASE                                                            
%FORMAT(5E16.8)                                                                 
  0.00000000E+00  0.00000000E+00  0.00000000E+00  3.14159400E+00  0.00000000E+00
  0.00000000E+00  0.00000000E+00  0.00000000E+00  0.00000000E+00  0.00000000E+00
  0.00000000E+00  3.14159400E+00  0.00000000E+00  0.00000000E+00  0.00000000E+00
  3.14159400E+00
%FLAG SCEE_SCALE_FACTOR                                                         
%FORMAT(5E16.8)                                                                 
  1.20000000E+00  1.20000000E+00  1.20000000E+00  1.20000000E+00  1.20000000E+00
  1.20000000E+00  1.20000000E+00  1.20000000E+00  1.20000000E+00  1.20000000E+00
  1.20000000E+00  1.20000000E+00  1.20000000E+00  1.20000000E+00  1.20000000E+00
  0.00000000E+00
%FLAG SCNB_SCALE_FACTOR                                                         
%FORMAT(5E16.8)                                                                 
  2.00000000E+00  2.00000000E+00  2.00000000E+00  2.00000000E+00  2.00000000E+00
  2.00000000E+00  2.00000000E+00  2.00000000E+00  2.00000000E+00  2.00000000E+00
  2.00000000E+00  2.00000000E+00  2.00000000E+00  2.00000000E+00  2.00000000E+00
  0.00000000E+00
%FLAG SOLTY                                                                     
%FORMAT(5E16.8)                                                                 
  0.00000000E+00  0.00000000E+00  0.00000000E+00  0.00000000E+00  0.00000000E+00
  0.00000000E+00  0.00000000E+00  0.00000000E+00  0.00000000E+00  0.00000000E+00
%FLAG LENNARD_JONES_ACOEF                                                       
%FORMAT(5E16.8)                                                                 
  2.83662575E+05  3.78207390E+05  5.03152404E+05  4.60917758E+05  6.09286822E+05
  7.24302894E+05  5.42502534E+05  7.18991463E+05  8.61147463E+05  1.02073671E+06
  4.46121722E+05  5.92438683E+05  7.13691175E+05  8.43969952E+05  6.96551276E+05
  3.44374471E+04  4.69084694E+04  6.08009173E+04  6.97998263E+04  5.63013422E+04
  3.39005767E+03  9.46795083E+02  1.36475542E+03  2.07791361E+03  2.23577481E+03
  1.71458823E+03  5.24570081E+01  1.34728399E-01  5.02224902E+04  6.80216136E+04
  8.67370500E+04  1.00235148E+05  8.12662403E+04  5.22955465E+03  9.47421632E+01
  7.94617769E+03  1.16469347E+02  1.74176419E+02  2.93996564E+02  3.03553352E+02
  2.25372434E+02  4.36660257E+00  2.61760843E-03  8.80612241E+00  1.10360882E-05
  4.65732396E+04  6.30298721E+04  8.01918051E+04  9.27554496E+04  7.52549148E+04
  4.88692384E+03  9.04434904E+01  7.41026906E+03  8.53132435E+00  6.90855956E+03
%FLAG LENNARD_JONES_BCOEF                                                       
%FORMAT(5E16.8)                                                                 
  2.87011518E+02  3.52573684E+02  4.32634597E+02  3.36894171E+02  4.12077831E+02
  3.88888730E+02  4.38146883E+02  5.36620538E+02  5.08324538E+02  6.63431737E+02
  3.88758656E+02  4.76608379E+02  4.52784989E+02  5.90251928E+02  5.24668528E+02
  7.31636661E+01  9.08431526E+01  8.95196800E+01  1.14981426E+02  1.01040256E+02
  1.67944276E+01  1.01016461E+01  1.29026271E+01  1.37803855E+01  1.71355763E+01
  1.46824710E+01  1.73959275E+00  7.34107347E-02  8.83545880E+01  1.09393126E+02
  1.06921681E+02  1.37787728E+02  1.21392023E+02  2.08590256E+01  2.33785449E+00
  2.57122925E+01  2.93355636E+00  3.81654050E+00  4.29183694E+00  5.22789272E+00
  4.40751799E+00  4.15568027E-01  8.47240681E-03  5.90150328E-01  4.55498033E-04
  7.98066064E+01  9.87712192E+01  9.64315361E+01  1.24325688E+02  1.09570372E+02
  1.89134207E+01  2.14252117E+00  2.32899892E+01  5.44840215E-01  2.10929191E+01
%FLAG BONDS_INC_HYDROGEN                                                        
%FORMAT(10I8)                                                                   
       3      96       4       6      69       6       9      57       8      12
      60       8      12      63       8      15      66       8      18      72
       8      18      75       8      21      78       9      21      81       9
      21      84       9      24      87       9      24      90       9      24
      93       9      36      99      11      39     102      11      42     105
      11      45     108      11      48     111      11      51     114      11
      54     117      11
%FLAG BONDS_WITHOUT_HYDROGEN                                                    
%FORMAT(10I8)                                                                   
       0      18       1       0      27       2       3       9       3       6
      12       5       6      15       5       9      12       7       9      18
       7      15      21       7      15      24       7      27      30      10
      27      36      10      30      33      10      30      39      10      33
      42      10      33      48      10      36      45      10      39      51
      10      42      45      10      48      54      10      51      54      10
%FLAG ANGLES_INC_HYDROGEN                                                       
%FORMAT(10I8)                                                                   
       0      18      72       2       0      18      75       2       3       9
      57       5       6      12      60       7       6      12      63       7
       6      15      66       7       9       3      96       8       9      12
      60       9       9      12      63       9       9      18      72       9
       9      18      75       9      12       6      69      11      12       9
      57       9      15       6      69      11      15      21      78      13
      15      21      81      13      15      21      84      13      15      24
      87      13      15      24      90      13      15      24      93      13
      18       9      57       9      21      15      66       9      24      15
      66       9      27      36      99      16      30      39     102      16
      33      42     105      16      33      48     111      16      36      45
     108      16      39      51     114      16      42      45     108      16
      45      36      99      16      45      42     105      16      48      54
     117      16      51      39     102      16      51      54     117      16
      54      48     111      16      54      51     114      16      60      12
      63      17      72      18      75      17      78      21      81      18
      78      21      84      18      81      21      84      18      87      24
      90      18      87      24      93      18      90      24      93      18
%FLAG ANGLES_WITHOUT_HYDROGEN                                                   
%FORMAT(10I8)                                                                   
       0      18       9       1       0      27      30       3       0      27
      36       3       3       9      12       4       3       9      18       4
       6      12       9       6       6      15      21       6       6      15
      24       6      12       6      15      10      12       9      18      12
      18       0      27      14      21      15      24      12      27      30
      33      15      27      30      39      15      27      36      45      15
      30      27      36      15      30      33      42      15      30      33
      48      15      30      39      51      15      33      30      39      15
      33      42      45      15      33      48      54      15      36      45
      42      15      39      51      54      15      42      33      48      15
      48      54      51      15
%FLAG DIHEDRALS_INC_HYDROGEN                                                    
%FORMAT(10I8)                                                                   
       0      18       9      57       2       0      18      -9      57       3
       0      27      36      99       4       3       9      12      60       2
       3       9     -12      60       3       3       9      12      63       2
       3       9     -12      63       3       3       9      18      72       2
       3       9     -18      72       3       3       9      18      75       2
       3       9     -18      75       3       6      12       9      57       1
       6      15      21      78       6       6      15      21      81       6
       6      15      21      84       6       6      15      24      87       6
       6      15      24      90       6       6      15      24      93       6
       9      12       6      69       8      12       6      15      66      10
      12       9       3      96      11      12       9      18      72       1
      12       9      18      75       1      15       6      12      60      10
      15       6      12      63      10      18       9       3      96      11
      18       9      12      60       1      18       9      12      63       1
      21      15       6      69       8      21      15      24      87      13
      21      15      24      90      13      21      15      24      93      13
      24      15       6      69       8      24      15      21      78      13
      24      15      21      81      13      24      15      21      84      13
      27       0      18      72       9      27       0      18      75       9
      27      30      39     102       4      27      36      45     108       4
      30      27      36      99       4      30      33      42     105       4
      30      33      48     111       4      30      39      51     114       4
      33      30      39     102       4      33      42      45     108       4
      33      48      54     117       4      36      45      42     105       4
      39      51      54     117       4      42      33      48     111       4
      42      45      36      99       4      48      33      42     105       4
      48      54      51     114       4      51      54      48     111       4
      54      51      39     102       4      57       9       3      96      14
      57       9      12      60       1      57       9      12      63       1
      57       9      18      72       1      57       9      18      75       1
      60      12       6      69      15      63      12       6      69      15
      66      15       6      69      15      66      15      21      78       1
      66      15      21      81       1      66      15      21      84       1
      66      15      24      87       1      66      15      24      90       1
      66      15      24      93       1      99      36      45     108       4
     102      39      51     114       4     105      42      45     108       4
     111      48      54     117       4     114      51      54     117       4
      27      45     -36     -99      16      30      51     -39    -102      16
      33      45     -42    -105      16      36      42     -45    -108      16
      33      54     -48    -111      16      39      54     -51    -114      16
      48      51     -54    -117      16
%FLAG DIHEDRALS_WITHOUT_HYDROGEN                                                
%FORMAT(10I8)                                                                   
       0      18       9       3       1       0      18       9      12       1
       0      27      30      33       4       0      27      30      39       4
       0      27      36      45       4       3       9      12       6       1
       6      12       9      18       5       9      12       6      15       7
      27       0      18       9       9      12       6      15      21       7
      12       6      15      24       7      18       0      27      30      12
      18       0      27      36      12      27      30      33      42       4
      27      30      33      48       4      27      30      39      51       4
      27      36     -45      42       4      30      27      36      45       4
      30      33     -42      45       4      30      33      48      54       4
      30      39     -51      54       4      33      30      27      36       4
      33      30      39      51       4      33      42     -45      36       4
      33      48     -54      51       4      36      27      30      39       4
      39      30      33      42       4      39      30      33      48       4
      39      51     -54      48       4      42      33      48      54       4
      45      42      33      48       4       0      27     -36     -30      16
      27      33     -30     -39      16      30      42     -33     -48      16
%FLAG EXCLUDED_ATOMS_LIST                                                       
%FORMAT(10I8)                                                                   
       2       4       5       7      10      11      12      13      14      16
      20      25      26      34       3       4       5       7      20      21
      22      25      26      33       4       5       6       7       8       9
      20      21      22      23      24      27      28      29      30      31
      32       5       6       7      10      20      21      22      24      25
      26      33       6       7       8       9      20      21      22      23
      24      25      26      33       8       9      21      22      23      24
      27      28      29      30      31      32      10      11      13      20
      21      22      25      26      33       9      23      24      27      28
      29      30      31      32      23      24      27      28      29      30
      31      32      11      12      13      14      15      16      17      18
      25      26      34      35      37      12      13      14      15      16
      17      18      19      34      35      36      38      39      13      14
      15      16      17      18      19      35      36      37      38      40
      14      15      16      34      36      37      15      17      18      19
      35      39      40      16      17      19      34      36      37      38
      17      34      36      37      18      19      36      38      39      40
      19      35      38      39      40      35      38      39      40      21
      22      25      26      33      22      24      24      24      27      28
      29      30      31      32       0      26       0      28      29      29
       0      31      32      32       0       0      37      39      37       0
      40      40       0
%FLAG HBOND_ACOEF                                                               
%FORMAT(5E16.8)                                                                 

%FLAG HBOND_BCOEF                                                               
%FORMAT(5E16.8)                                                                 

%FLAG HBCUT                                                                     
%FORMAT(5E16.8)                                                                 

%FLAG AMBER_ATOM_TYPE                                                           
%FORMAT(20a4)                                                                   
os  oh  n7  c3  c3  c3  c3  c3  c3  ca  ca  ca  ca  ca  ca  ca  ca  ca  ca  h1  
h1  h1  h1  hn  h1  h1  hc  hc  hc  hc  hc  hc  ho  ha  ha  ha  ha  ha  ha  ha  
%FLAG TREE_CHAIN_CLASSIFICATION                                                 
%FORMAT(20a4)                                                                   
BLA BLA BLA BLA BLA BLA BLA BLA BLA BLA BLA BLA BLA BLA BLA BLA BLA BLA BLA BLA 
BLA BLA BLA BLA BLA BLA BLA BLA BLA BLA BLA BLA BLA BLA BLA BLA BLA BLA BLA BLA 
%FLAG JOIN_ARRAY                                                                
%FORMAT(10I8)                                                                   
       0       0       0       0       0       0       0       0       0       0
       0       0       0       0       0       0       0       0       0       0
       0       0       0       0       0       0       0       0       0       0
       0       0       0       0       0       0       0       0       0       0
%FLAG IROTAT                                                                    
%FORMAT(10I8)                                                                   
       0       0       0       0       0       0       0       0       0       0
       0       0       0       0       0       0       0       0       0       0
       0       0       0       0       0       0       0       0       0       0
       0       0       0       0       0       0       0       0       0       0
%FLAG RADIUS_SET                                                                
%FORMAT(1a80)                                                                   
modified Bondi radii (mbondi)                                                   
%FLAG RADII                                                                     
%FORMAT(5E16.8)                                                                 
  1.50000000E+00  1.50000000E+00  1.55000000E+00  1.70000000E+00  1.70000000E+00
  1.70000000E+00  1.70000000E+00  1.70000000E+00  1.70000000E+00  1.70000000E+00
  1.70000000E+00  1.70000000E+00  1.70000000E+00  1.70000000E+00  1.70000000E+00
  1.70000000E+00  1.70000000E+00  1.70000000E+00  1.70000000E+00  1.30000000E+00
  1.30000000E+00  1.30000000E+00  1.30000000E+00  1.30000000E+00  1.30000000E+00
  1.30000000E+00  1.30000000E+00  1.30000000E+00  1.30000000E+00  1.30000000E+00
  1.30000000E+00  1.30000000E+00  8.00000000E-01  1.30000000E+00  1.30000000E+00
  1.30000000E+00  1.30000000E+00  1.30000000E+00  1.30000000E+00  1.30000000E+00
%FLAG SCREEN                                                                    
%FORMAT(5E16.8)                                                                 
  8.50000000E-01  8.50000000E-01  7.90000000E-01  7.20000000E-01  7.20000000E-01
  7.20000000E-01  7.20000000E-01  7.20000000E-01  7.20000000E-01  7.20000000E-01
  7.20000000E-01  7.20000000E-01  7.20000000E-01  7.20000000E-01  7.20000000E-01
  7.20000000E-01  7.20000000E-01  7.20000000E-01  7.20000000E-01  8.50000000E-01
  8.50000000E-01  8.50000000E-01  8.50000000E-01  8.50000000E-01  8.50000000E-01
  8.50000000E-01  8.50000000E-01  8.50000000E-01  8.50000000E-01  8.50000000E-01
  8.50000000E-01  8.50000000E-01  8.50000000E-01  8.50000000E-01  8.50000000E-01
  8.50000000E-01  8.50000000E-01  8.50000000E-01  8.50000000E-01  8.50000000E-01
%FLAG IPOL                                                                      
%FORMAT(1I8)                                                                    
       0
