; sucrose_GMX_OPLS.itp created by acpype (v: 2023.10.27) on Mon Feb  9 17:59:15 2026

; For OPLS atomtypes manual fine tuning
; AC_at:OPLS_at:OPLScode: Possible_Alternatives (see ffoplsaa.atp and ffoplsaanb.itp)
; os:x:opls_x: []
; oh:OH:opls_154: ['167']
; c5:x:opls_x: []
; c6:x:opls_x: []
; c3:CT:opls_135: ['136', '137', '149', '157', '158', '206', '209', '210', '223B', '224B', '245', '246', '274', '283', '284', '285', '292', '292B', '293B', '296', '307', '308', '505']
; h1:HC:opls_140: []
; h2:x:opls_x: []
; ho:HO:opls_155: ['168']

[ moleculetype ]
;name            nrexcl
 sucrose          3

[ atoms ]
;   nr  type  resi  res  atom  cgnr     charge      mass       ; qtot   bond_type
     1 opls_x     1   UNL     O    1    -0.424600      0.00000 ; qtot -0.425  x   
     2 opls_x     1   UNL    O1    2    -0.420600      0.00000 ; qtot -0.845  x   
     3 opls_x     1   UNL    O2    3    -0.434600      0.00000 ; qtot -1.280  x   
     4 opls_154     1   UNL    O3    4    -0.569800     15.99940 ; qtot -1.850  OH  
     5 opls_154     1   UNL    O4    5    -0.592800     15.99940 ; qtot -2.442  OH  
     6 opls_154     1   UNL    O5    6    -0.600800     15.99940 ; qtot -3.043  OH  
     7 opls_154     1   UNL    O6    7    -0.601800     15.99940 ; qtot -3.645  OH  
     8 opls_154     1   UNL    O7    8    -0.588800     15.99940 ; qtot -4.234  OH  
     9 opls_154     1   UNL    O8    9    -0.587800     15.99940 ; qtot -4.822  OH  
    10 opls_154     1   UNL    O9   10    -0.600800     15.99940 ; qtot -5.422  OH  
    11 opls_154     1   UNL   O10   11    -0.591800     15.99940 ; qtot -6.014  OH  
    12 opls_x     1   UNL     C   12     0.311600      0.00000 ; qtot -5.703  x   
    13 opls_x     1   UNL    C1   13     0.132100      0.00000 ; qtot -5.570  x   
    14 opls_x     1   UNL    C2   14     0.080100      0.00000 ; qtot -5.490  x   
    15 opls_x     1   UNL    C3   15     0.069100      0.00000 ; qtot -5.421  x   
    16 opls_x     1   UNL    C4   16     0.304900      0.00000 ; qtot -5.116  x   
    17 opls_x     1   UNL    C5   17     0.132100      0.00000 ; qtot -4.984  x   
    18 opls_x     1   UNL    C6   18     0.105100      0.00000 ; qtot -4.879  x   
    19 opls_x     1   UNL    C7   19     0.094100      0.00000 ; qtot -4.785  x   
    20 opls_x     1   UNL    C8   20     0.080100      0.00000 ; qtot -4.705  x   
    21 opls_135     1   UNL    C9   21     0.124400     12.01100 ; qtot -4.581  CT  
    22 opls_135     1   UNL   C10   22     0.126400     12.01100 ; qtot -4.454  CT  
    23 opls_135     1   UNL   C11   23     0.092400     12.01100 ; qtot -4.362  CT  
    24 opls_140     1   UNL     H   24     0.095700      1.00800 ; qtot -4.266  HC  
    25 opls_140     1   UNL    H1   25     0.066700      1.00800 ; qtot -4.199  HC  
    26 opls_140     1   UNL    H2   26     0.086700      1.00800 ; qtot -4.113  HC  
    27 opls_x     1   UNL    H3   27     0.063700      0.00000 ; qtot -4.049  x   
    28 opls_140     1   UNL    H4   28     0.075700      1.00800 ; qtot -3.973  HC  
    29 opls_140     1   UNL    H5   29     0.076700      1.00800 ; qtot -3.897  HC  
    30 opls_140     1   UNL    H6   30     0.093700      1.00800 ; qtot -3.803  HC  
    31 opls_140     1   UNL    H7   31     0.091700      1.00800 ; qtot -3.711  HC  
    32 opls_140     1   UNL    H8   32     0.068700      1.00800 ; qtot -3.643  HC  
    33 opls_140     1   UNL    H9   33     0.068700      1.00800 ; qtot -3.574  HC  
    34 opls_140     1   UNL   H10   34     0.049200      1.00800 ; qtot -3.525  HC  
    35 opls_140     1   UNL   H11   35     0.049200      1.00800 ; qtot -3.475  HC  
    36 opls_140     1   UNL   H12   36     0.062700      1.00800 ; qtot -3.413  HC  
    37 opls_140     1   UNL   H13   37     0.062700      1.00800 ; qtot -3.350  HC  
    38 opls_155     1   UNL   H14   38     0.412000      1.00800 ; qtot -2.938  HO  
    39 opls_155     1   UNL   H15   39     0.410000      1.00800 ; qtot -2.528  HO  
    40 opls_155     1   UNL   H16   40     0.433000      1.00800 ; qtot -2.095  HO  
    41 opls_155     1   UNL   H17   41     0.417000      1.00800 ; qtot -1.678  HO  
    42 opls_155     1   UNL   H18   42     0.428000      1.00800 ; qtot -1.250  HO  
    43 opls_155     1   UNL   H19   43     0.418000      1.00800 ; qtot -0.832  HO  
    44 opls_155     1   UNL   H20   44     0.429000      1.00800 ; qtot -0.403  HO  
    45 opls_155     1   UNL   H21   45     0.403000      1.00800 ; qtot -0.000  HO  

[ bonds ]
;   ai     aj funct   r             k
     1     12   1 ;    1.4346e-01    2.3063e+05 ;      O - C           x - x     
     1     15   1 ;    1.4346e-01    2.3063e+05 ;      O - C3          x - x     
     2     12   1 ;    1.4346e-01    2.3063e+05 ;     O1 - C           x - x     
     2     16   1 ;    1.4300e-01    2.3412e+05 ;     O1 - C4          x - x     
     3     16   1 ;    1.4300e-01    2.3412e+05 ;     O2 - C4          x - x     
     3     20   1 ;    1.4300e-01    2.3412e+05 ;     O2 - C8          x - x     
     4     13   1 ;    1.4194e-01    2.4241e+05 ;     O3 - C1         OH - x     
     4     38   1 ;    9.7250e-02    4.4811e+05 ;     O3 - H14        OH - HO    
     5     14   1 ;    1.4194e-01    2.4241e+05 ;     O4 - C2         OH - x     
     5     39   1 ;    9.7250e-02    4.4811e+05 ;     O4 - H15        OH - HO    
     6     17   1 ;    1.4241e-01    2.3870e+05 ;     O5 - C5         OH - x     
     6     40   1 ;    9.7250e-02    4.4811e+05 ;     O5 - H16        OH - HO    
     7     18   1 ;    1.4241e-01    2.3870e+05 ;     O6 - C6         OH - x     
     7     41   1 ;    9.7250e-02    4.4811e+05 ;     O6 - H17        OH - HO    
     8     19   1 ;    1.4241e-01    2.3870e+05 ;     O7 - C7         OH - x     
     8     42   1 ;    9.7250e-02    4.4811e+05 ;     O7 - H18        OH - HO    
     9     21   1 ;    1.4242e-01    2.3861e+05 ;     O8 - C9         OH - CT    
     9     43   1 ;    9.7250e-02    4.4811e+05 ;     O8 - H19        OH - HO    
    10     22   1 ;    1.4242e-01    2.3861e+05 ;     O9 - C10        OH - CT    
    10     44   1 ;    9.7250e-02    4.4811e+05 ;     O9 - H20        OH - HO    
    11     23   1 ;    1.4242e-01    2.3861e+05 ;    O10 - C11        OH - CT    
    11     45   1 ;    9.7250e-02    4.4811e+05 ;    O10 - H21        OH - HO    
    12     13   1 ;    1.5483e-01    1.8418e+05 ;      C - C1          x - x     
    12     21   1 ;    1.5372e-01    1.9049e+05 ;      C - C9          x - CT    
    13     14   1 ;    1.5483e-01    1.8418e+05 ;     C1 - C2          x - x     
    13     24   1 ;    1.0972e-01    2.8768e+05 ;     C1 - H           x - HC    
    14     15   1 ;    1.5483e-01    1.8418e+05 ;     C2 - C3          x - x     
    14     25   1 ;    1.0972e-01    2.8768e+05 ;     C2 - H1          x - HC    
    15     22   1 ;    1.5372e-01    1.9049e+05 ;     C3 - C10         x - CT    
    15     26   1 ;    1.0972e-01    2.8768e+05 ;     C3 - H2          x - HC    
    16     17   1 ;    1.5384e-01    1.8979e+05 ;     C4 - C5          x - x     
    16     27   1 ;    1.0985e-01    2.8609e+05 ;     C4 - H3          x - x     
    17     18   1 ;    1.5384e-01    1.8979e+05 ;     C5 - C6          x - x     
    17     28   1 ;    1.0984e-01    2.8620e+05 ;     C5 - H4          x - HC    
    18     19   1 ;    1.5384e-01    1.8979e+05 ;     C6 - C7          x - x     
    18     29   1 ;    1.0984e-01    2.8620e+05 ;     C6 - H5          x - HC    
    19     20   1 ;    1.5384e-01    1.8979e+05 ;     C7 - C8          x - x     
    19     30   1 ;    1.0984e-01    2.8620e+05 ;     C7 - H6          x - HC    
    20     23   1 ;    1.5428e-01    1.8728e+05 ;     C8 - C11         x - CT    
    20     31   1 ;    1.0984e-01    2.8620e+05 ;     C8 - H7          x - HC    
    21     32   1 ;    1.0969e-01    2.8804e+05 ;     C9 - H8         CT - HC    
    21     33   1 ;    1.0969e-01    2.8804e+05 ;     C9 - H9         CT - HC    
    22     34   1 ;    1.0969e-01    2.8804e+05 ;    C10 - H10        CT - HC    
    22     35   1 ;    1.0969e-01    2.8804e+05 ;    C10 - H11        CT - HC    
    23     36   1 ;    1.0969e-01    2.8804e+05 ;    C11 - H12        CT - HC    
    23     37   1 ;    1.0969e-01    2.8804e+05 ;    C11 - H13        CT - HC    

[ pairs ]
;   ai     aj    funct
     1      4      1 ;      O - O3    
     1      5      1 ;      O - O4    
     1      9      1 ;      O - O8    
     1     10      1 ;      O - O9    
     1     16      1 ;      O - C4    
     1     24      1 ;      O - H     
     1     25      1 ;      O - H1    
     1     32      1 ;      O - H8    
     1     33      1 ;      O - H9    
     1     34      1 ;      O - H10   
     1     35      1 ;      O - H11   
     2      4      1 ;     O1 - O3    
     2      6      1 ;     O1 - O5    
     2      9      1 ;     O1 - O8    
     2     14      1 ;     O1 - C2    
     2     18      1 ;     O1 - C6    
     2     20      1 ;     O1 - C8    
     2     24      1 ;     O1 - H     
     2     28      1 ;     O1 - H4    
     2     32      1 ;     O1 - H8    
     2     33      1 ;     O1 - H9    
     3      6      1 ;     O2 - O5    
     3      8      1 ;     O2 - O7    
     3     11      1 ;     O2 - O10   
     3     12      1 ;     O2 - C     
     3     18      1 ;     O2 - C6    
     3     28      1 ;     O2 - H4    
     3     30      1 ;     O2 - H6    
     3     36      1 ;     O2 - H12   
     3     37      1 ;     O2 - H13   
     4      5      1 ;     O3 - O4    
     4     15      1 ;     O3 - C3    
     4     21      1 ;     O3 - C9    
     4     25      1 ;     O3 - H1    
     5     12      1 ;     O4 - C     
     5     22      1 ;     O4 - C10   
     5     24      1 ;     O4 - H     
     5     26      1 ;     O4 - H2    
     6      7      1 ;     O5 - O6    
     6     19      1 ;     O5 - C7    
     6     27      1 ;     O5 - H3    
     6     29      1 ;     O5 - H5    
     7      8      1 ;     O6 - O7    
     7     16      1 ;     O6 - C4    
     7     20      1 ;     O6 - C8    
     7     28      1 ;     O6 - H4    
     7     30      1 ;     O6 - H6    
     8     17      1 ;     O7 - C5    
     8     23      1 ;     O7 - C11   
     8     29      1 ;     O7 - H5    
     8     31      1 ;     O7 - H7    
     9     13      1 ;     O8 - C1    
    10     14      1 ;     O9 - C2    
    10     26      1 ;     O9 - H2    
    11     19      1 ;    O10 - C7    
    11     31      1 ;    O10 - H7    
    12     17      1 ;      C - C5    
    12     22      1 ;      C - C10   
    12     25      1 ;      C - H1    
    12     26      1 ;      C - H2    
    12     27      1 ;      C - H3    
    12     38      1 ;      C - H14   
    12     43      1 ;      C - H19   
    13     16      1 ;     C1 - C4    
    13     22      1 ;     C1 - C10   
    13     26      1 ;     C1 - H2    
    13     32      1 ;     C1 - H8    
    13     33      1 ;     C1 - H9    
    13     39      1 ;     C1 - H15   
    14     21      1 ;     C2 - C9    
    14     34      1 ;     C2 - H10   
    14     35      1 ;     C2 - H11   
    14     38      1 ;     C2 - H14   
    15      2      1 ;     C3 - O1    
    15     21      1 ;     C3 - C9    
    15     24      1 ;     C3 - H     
    15     39      1 ;     C3 - H15   
    15     44      1 ;     C3 - H20   
    16     19      1 ;     C4 - C7    
    16     21      1 ;     C4 - C9    
    16     23      1 ;     C4 - C11   
    16     29      1 ;     C4 - H5    
    16     31      1 ;     C4 - H7    
    16     40      1 ;     C4 - H16   
    17     20      1 ;     C5 - C8    
    17     30      1 ;     C5 - H6    
    17     41      1 ;     C5 - H17   
    18     23      1 ;     C6 - C11   
    18     27      1 ;     C6 - H3    
    18     31      1 ;     C6 - H7    
    18     40      1 ;     C6 - H16   
    18     42      1 ;     C6 - H18   
    19     28      1 ;     C7 - H4    
    19     36      1 ;     C7 - H12   
    19     37      1 ;     C7 - H13   
    19     41      1 ;     C7 - H17   
    20     27      1 ;     C8 - H3    
    20     29      1 ;     C8 - H5    
    20     42      1 ;     C8 - H18   
    20     45      1 ;     C8 - H21   
    21     24      1 ;     C9 - H     
    22     25      1 ;    C10 - H1    
    23     30      1 ;    C11 - H6    
    24     25      1 ;      H - H1    
    24     38      1 ;      H - H14   
    25     26      1 ;     H1 - H2    
    25     39      1 ;     H1 - H15   
    26     34      1 ;     H2 - H10   
    26     35      1 ;     H2 - H11   
    27     28      1 ;     H3 - H4    
    28     29      1 ;     H4 - H5    
    28     40      1 ;     H4 - H16   
    29     30      1 ;     H5 - H6    
    29     41      1 ;     H5 - H17   
    30     31      1 ;     H6 - H7    
    30     42      1 ;     H6 - H18   
    31     36      1 ;     H7 - H12   
    31     37      1 ;     H7 - H13   
    32     43      1 ;     H8 - H19   
    33     43      1 ;     H9 - H19   
    34     44      1 ;    H10 - H20   
    35     44      1 ;    H11 - H20   
    36     45      1 ;    H12 - H21   
    37     45      1 ;    H13 - H21   

[ angles ]
;   ai     aj     ak    funct   theta         cth
     1     12      2      1 ;    1.0789e+02    8.1956e+02 ;      O - C    - O1        x -    x - x   
     1     12     13      1 ;    1.0614e+02    6.4793e+02 ;      O - C    - C1        x -    x - x   
     1     12     21      1 ;    1.0897e+02    6.4224e+02 ;      O - C    - C9        x -    x - CT  
     1     15     14      1 ;    1.0614e+02    6.4793e+02 ;      O - C3   - C2        x -    x - x   
     1     15     22      1 ;    1.0897e+02    6.4224e+02 ;      O - C3   - C10       x -    x - CT  
     1     15     26      1 ;    1.0846e+02    4.7229e+02 ;      O - C3   - H2        x -    x - HC  
     2     12     13      1 ;    1.0614e+02    6.4793e+02 ;     O1 - C    - C1        x -    x - x   
     2     12     21      1 ;    1.0897e+02    6.4224e+02 ;     O1 - C    - C9        x -    x - CT  
     2     16      3      1 ;    1.0950e+02    8.1613e+02 ;     O1 - C4   - O2        x -    x - x   
     2     16     17      1 ;    1.1009e+02    6.3948e+02 ;     O1 - C4   - C5        x -    x - x   
     2     16     27      1 ;    1.0944e+02    4.7137e+02 ;     O1 - C4   - H3        x -    x - x   
     3     16     17      1 ;    1.1009e+02    6.3948e+02 ;     O2 - C4   - C5        x -    x - x   
     3     16     27      1 ;    1.0944e+02    4.7137e+02 ;     O2 - C4   - H3        x -    x - x   
     3     20     19      1 ;    1.1009e+02    6.3948e+02 ;     O2 - C8   - C7        x -    x - x   
     3     20     23      1 ;    1.0683e+02    6.4810e+02 ;     O2 - C8   - C11       x -    x - CT  
     3     20     31      1 ;    1.0808e+02    4.7430e+02 ;     O2 - C8   - H7        x -    x - HC  
     4     13     12      1 ;    1.1162e+02    6.3455e+02 ;     O3 - C1   - C        OH -    x - x   
     4     13     14      1 ;    1.1162e+02    6.3455e+02 ;     O3 - C1   - C2       OH -    x - x   
     4     13     24      1 ;    1.1027e+02    4.7254e+02 ;     O3 - C1   - H        OH -    x - HC  
     5     14     13      1 ;    1.1162e+02    6.3455e+02 ;     O4 - C2   - C1       OH -    x - x   
     5     14     15      1 ;    1.1162e+02    6.3455e+02 ;     O4 - C2   - C3       OH -    x - x   
     5     14     25      1 ;    1.1027e+02    4.7254e+02 ;     O4 - C2   - H1       OH -    x - HC  
     6     17     16      1 ;    1.1005e+02    6.4065e+02 ;     O5 - C5   - C4       OH -    x - x   
     6     17     18      1 ;    1.1005e+02    6.4065e+02 ;     O5 - C5   - C6       OH -    x - x   
     6     17     28      1 ;    1.0996e+02    4.7187e+02 ;     O5 - C5   - H4       OH -    x - HC  
     7     18     17      1 ;    1.1005e+02    6.4065e+02 ;     O6 - C6   - C5       OH -    x - x   
     7     18     19      1 ;    1.1005e+02    6.4065e+02 ;     O6 - C6   - C7       OH -    x - x   
     7     18     29      1 ;    1.0996e+02    4.7187e+02 ;     O6 - C6   - H5       OH -    x - HC  
     8     19     18      1 ;    1.1005e+02    6.4065e+02 ;     O7 - C7   - C6       OH -    x - x   
     8     19     20      1 ;    1.1005e+02    6.4065e+02 ;     O7 - C7   - C8       OH -    x - x   
     8     19     30      1 ;    1.0996e+02    4.7187e+02 ;     O7 - C7   - H6       OH -    x - HC  
     9     21     12      1 ;    1.0985e+02    6.4157e+02 ;     O8 - C9   - C        OH -   CT - x   
     9     21     32      1 ;    1.1038e+02    4.7103e+02 ;     O8 - C9   - H8       OH -   CT - HC  
     9     21     33      1 ;    1.1038e+02    4.7103e+02 ;     O8 - C9   - H9       OH -   CT - HC  
    10     22     15      1 ;    1.0985e+02    6.4157e+02 ;     O9 - C10  - C3       OH -   CT - x   
    10     22     34      1 ;    1.1038e+02    4.7103e+02 ;     O9 - C10  - H10      OH -   CT - HC  
    10     22     35      1 ;    1.1038e+02    4.7103e+02 ;     O9 - C10  - H11      OH -   CT - HC  
    11     23     20      1 ;    1.1145e+02    6.3555e+02 ;    O10 - C11  - C8       OH -   CT - x   
    11     23     36      1 ;    1.1038e+02    4.7103e+02 ;    O10 - C11  - H12      OH -   CT - HC  
    11     23     37      1 ;    1.1038e+02    4.7103e+02 ;    O10 - C11  - H13      OH -   CT - HC  
    12      1     15      1 ;    1.0926e+02    7.4986e+02 ;      C - O    - C3        x -    x - x   
    12      2     16      1 ;    1.1500e+02    7.3212e+02 ;      C - O1   - C4        x -    x - x   
    12     13     14      1 ;    1.0383e+02    5.1748e+02 ;      C - C1   - C2        x -    x - x   
    12     13     24      1 ;    1.1117e+02    3.5690e+02 ;      C - C1   - H         x -    x - HC  
    12     21     32      1 ;    1.0938e+02    3.6217e+02 ;      C - C9   - H8        x -   CT - HC  
    12     21     33      1 ;    1.0938e+02    3.6217e+02 ;      C - C9   - H9        x -   CT - HC  
    13      4     38      1 ;    1.0717e+02    5.4727e+02 ;     C1 - O3   - H14       x -   OH - HO  
    13     12     21      1 ;    1.1360e+02    4.9647e+02 ;     C1 - C    - C9        x -    x - CT  
    13     14     15      1 ;    1.0383e+02    5.1748e+02 ;     C1 - C2   - C3        x -    x - x   
    13     14     25      1 ;    1.1117e+02    3.5690e+02 ;     C1 - C2   - H1        x -    x - HC  
    14      5     39      1 ;    1.0717e+02    5.4727e+02 ;     C2 - O4   - H15       x -   OH - HO  
    14     13     24      1 ;    1.1117e+02    3.5690e+02 ;     C2 - C1   - H         x -    x - HC  
    14     15     22      1 ;    1.1360e+02    4.9647e+02 ;     C2 - C3   - C10       x -    x - CT  
    14     15     26      1 ;    1.1117e+02    3.5690e+02 ;     C2 - C3   - H2        x -    x - HC  
    15     14     25      1 ;    1.1117e+02    3.5690e+02 ;     C3 - C2   - H1        x -    x - HC  
    15     22     34      1 ;    1.0938e+02    3.6217e+02 ;     C3 - C10  - H10       x -   CT - HC  
    15     22     35      1 ;    1.0938e+02    3.6217e+02 ;     C3 - C10  - H11       x -   CT - HC  
    16      3     20      1 ;    1.1330e+02    7.3873e+02 ;     C4 - O2   - C8        x -    x - x   
    16     17     18      1 ;    1.1106e+02    5.0359e+02 ;     C4 - C5   - C6        x -    x - x   
    16     17     28      1 ;    1.0918e+02    3.6217e+02 ;     C4 - C5   - H4        x -    x - HC  
    17      6     40      1 ;    1.0707e+02    5.4584e+02 ;     C5 - O5   - H16       x -   OH - HO  
    17     16     27      1 ;    1.0998e+02    3.6083e+02 ;     C5 - C4   - H3        x -    x - x   
    17     18     19      1 ;    1.1106e+02    5.0359e+02 ;     C5 - C6   - C7        x -    x - x   
    17     18     29      1 ;    1.0918e+02    3.6217e+02 ;     C5 - C6   - H5        x -    x - HC  
    18      7     41      1 ;    1.0707e+02    5.4584e+02 ;     C6 - O6   - H17       x -   OH - HO  
    18     17     28      1 ;    1.0918e+02    3.6217e+02 ;     C6 - C5   - H4        x -    x - HC  
    18     19     20      1 ;    1.1106e+02    5.0359e+02 ;     C6 - C7   - C8        x -    x - x   
    18     19     30      1 ;    1.0918e+02    3.6217e+02 ;     C6 - C7   - H6        x -    x - HC  
    19      8     42      1 ;    1.0707e+02    5.4584e+02 ;     C7 - O7   - H18       x -   OH - HO  
    19     18     29      1 ;    1.0918e+02    3.6217e+02 ;     C7 - C6   - H5        x -    x - HC  
    19     20     23      1 ;    1.1143e+02    5.0200e+02 ;     C7 - C8   - C11       x -    x - CT  
    19     20     31      1 ;    1.0918e+02    3.6217e+02 ;     C7 - C8   - H7        x -    x - HC  
    20     19     30      1 ;    1.0918e+02    3.6217e+02 ;     C8 - C7   - H6        x -    x - HC  
    20     23     36      1 ;    1.0913e+02    3.6141e+02 ;     C8 - C11  - H12       x -   CT - HC  
    20     23     37      1 ;    1.0913e+02    3.6141e+02 ;     C8 - C11  - H13       x -   CT - HC  
    21      9     43      1 ;    1.0739e+02    5.4501e+02 ;     C9 - O8   - H19      CT -   OH - HO  
    22     10     44      1 ;    1.0739e+02    5.4501e+02 ;    C10 - O9   - H20      CT -   OH - HO  
    22     15     26      1 ;    1.0924e+02    3.6242e+02 ;    C10 - C3   - H2       CT -    x - HC  
    23     11     45      1 ;    1.0739e+02    5.4501e+02 ;    C11 - O10  - H21      CT -   OH - HO  
    23     20     31      1 ;    1.0855e+02    3.6233e+02 ;    C11 - C8   - H7       CT -    x - HC  
    32     21     33      1 ;    1.0855e+02    2.9824e+02 ;     H8 - C9   - H9       HC -   CT - HC  
    34     22     35      1 ;    1.0855e+02    2.9824e+02 ;    H10 - C10  - H11      HC -   CT - HC  
    36     23     37      1 ;    1.0855e+02    2.9824e+02 ;    H12 - C11  - H13      HC -   CT - HC  

[ dihedrals ] ; propers
; for gromacs 4.5 or higher, using funct 9
;    i      j      k      l   func   phase     kd      pn
     1     12      2     16      9 ;     0.00   0.00000   0 ;      O-     C-    O1-    C4
     1     12      2     16      9 ;     0.00   0.00000   0 ;      O-     C-    O1-    C4
     1     12      2     16      9 ;     0.00  24.35088   1 ;      O-     C-    O1-    C4
     1     12     13      4      9 ;     0.00   2.46856   1 ;      O-     C-    C1-    O3
     1     12     13      4      9 ;     0.00   3.30536   3 ;      O-     C-    C1-    O3
     1     12     13      4      9 ;     0.00   5.27184   2 ;      O-     C-    C1-    O3
     1     12     13     14      9 ;     0.00   0.65084   3 ;      O-     C-    C1-    C2
     1     12     13     24      9 ;     0.00   0.00000   0 ;      O-     C-    C1-     H
     1     12     13     24      9 ;     0.00   1.04600   1 ;      O-     C-    C1-     H
     1     12     21      9      9 ;     0.00   2.46856   1 ;      O-     C-    C9-    O8
     1     12     21      9      9 ;     0.00   3.30536   3 ;      O-     C-    C9-    O8
     1     12     21      9      9 ;     0.00   5.27184   2 ;      O-     C-    C9-    O8
     1     12     21     32      9 ;     0.00   0.00000   0 ;      O-     C-    C9-    H8
     1     12     21     32      9 ;     0.00   1.04600   1 ;      O-     C-    C9-    H8
     1     12     21     33      9 ;     0.00   0.00000   0 ;      O-     C-    C9-    H9
     1     12     21     33      9 ;     0.00   1.04600   1 ;      O-     C-    C9-    H9
     1     15     14      5      9 ;     0.00   2.46856   1 ;      O-    C3-    C2-    O4
     1     15     14      5      9 ;     0.00   3.30536   3 ;      O-    C3-    C2-    O4
     1     15     14      5      9 ;     0.00   5.27184   2 ;      O-    C3-    C2-    O4
     1     15     14     13      9 ;     0.00   0.65084   3 ;      O-    C3-    C2-    C1
     1     15     14     25      9 ;     0.00   0.00000   0 ;      O-    C3-    C2-    H1
     1     15     14     25      9 ;     0.00   1.04600   1 ;      O-    C3-    C2-    H1
     1     15     22     10      9 ;     0.00   2.46856   1 ;      O-    C3-   C10-    O9
     1     15     22     10      9 ;     0.00   3.30536   3 ;      O-    C3-   C10-    O9
     1     15     22     10      9 ;     0.00   5.27184   2 ;      O-    C3-   C10-    O9
     1     15     22     34      9 ;     0.00   0.00000   0 ;      O-    C3-   C10-   H10
     1     15     22     34      9 ;     0.00   1.04600   1 ;      O-    C3-   C10-   H10
     1     15     22     35      9 ;     0.00   0.00000   0 ;      O-    C3-   C10-   H11
     1     15     22     35      9 ;     0.00   1.04600   1 ;      O-    C3-   C10-   H11
     2     12     13      4      9 ;     0.00   2.46856   1 ;     O1-     C-    C1-    O3
     2     12     13      4      9 ;     0.00   3.30536   3 ;     O1-     C-    C1-    O3
     2     12     13      4      9 ;     0.00   5.27184   2 ;     O1-     C-    C1-    O3
     2     12     13     14      9 ;     0.00   0.65084   3 ;     O1-     C-    C1-    C2
     2     12     13     24      9 ;     0.00   0.00000   0 ;     O1-     C-    C1-     H
     2     12     13     24      9 ;     0.00   1.04600   1 ;     O1-     C-    C1-     H
     2     12     21      9      9 ;     0.00   2.46856   1 ;     O1-     C-    C9-    O8
     2     12     21      9      9 ;     0.00   3.30536   3 ;     O1-     C-    C9-    O8
     2     12     21      9      9 ;     0.00   5.27184   2 ;     O1-     C-    C9-    O8
     2     12     21     32      9 ;     0.00   0.00000   0 ;     O1-     C-    C9-    H8
     2     12     21     32      9 ;     0.00   1.04600   1 ;     O1-     C-    C9-    H8
     2     12     21     33      9 ;     0.00   0.00000   0 ;     O1-     C-    C9-    H9
     2     12     21     33      9 ;     0.00   1.04600   1 ;     O1-     C-    C9-    H9
     2     16      3     20      9 ;     0.00   0.12552   3 ;     O1-    C4-    O2-    C8
     2     16      3     20      9 ;     0.00   6.23416   2 ;     O1-    C4-    O2-    C8
     2     16      3     20      9 ;   180.00   3.68192   1 ;     O1-    C4-    O2-    C8
     2     16     17      6      9 ;     0.00   4.47688   3 ;     O1-    C4-    C5-    O5
     2     16     17      6      9 ;   180.00   2.80328   1 ;     O1-    C4-    C5-    O5
     2     16     17      6      9 ;   180.00   3.05432   2 ;     O1-    C4-    C5-    O5
     2     16     17     18      9 ;     0.00   0.65084   3 ;     O1-    C4-    C5-    C6
     2     16     17     28      9 ;     0.00   0.00000   0 ;     O1-    C4-    C5-    H4
     2     16     17     28      9 ;     0.00   1.04600   1 ;     O1-    C4-    C5-    H4
     3     16      2     12      9 ;     0.00   3.55640   2 ;     O2-    C4-    O1-     C
     3     16      2     12      9 ;     0.00   3.55640   3 ;     O2-    C4-    O1-     C
     3     16      2     12      9 ;   180.00   1.92464   1 ;     O2-    C4-    O1-     C
     3     16     17      6      9 ;     0.00   4.47688   3 ;     O2-    C4-    C5-    O5
     3     16     17      6      9 ;   180.00   2.80328   1 ;     O2-    C4-    C5-    O5
     3     16     17      6      9 ;   180.00   3.05432   2 ;     O2-    C4-    C5-    O5
     3     16     17     18      9 ;     0.00   0.65084   3 ;     O2-    C4-    C5-    C6
     3     16     17     28      9 ;     0.00   0.00000   0 ;     O2-    C4-    C5-    H4
     3     16     17     28      9 ;     0.00   1.04600   1 ;     O2-    C4-    C5-    H4
     3     20     19      8      9 ;     0.00   4.47688   3 ;     O2-    C8-    C7-    O7
     3     20     19      8      9 ;   180.00   2.80328   1 ;     O2-    C8-    C7-    O7
     3     20     19      8      9 ;   180.00   3.05432   2 ;     O2-    C8-    C7-    O7
     3     20     19     18      9 ;     0.00   0.65084   3 ;     O2-    C8-    C7-    C6
     3     20     19     30      9 ;     0.00   0.00000   0 ;     O2-    C8-    C7-    H6
     3     20     19     30      9 ;     0.00   1.04600   1 ;     O2-    C8-    C7-    H6
     3     20     23     11      9 ;     0.00   4.47688   3 ;     O2-    C8-   C11-   O10
     3     20     23     11      9 ;   180.00   2.80328   1 ;     O2-    C8-   C11-   O10
     3     20     23     11      9 ;   180.00   3.05432   2 ;     O2-    C8-   C11-   O10
     3     20     23     36      9 ;     0.00   0.00000   0 ;     O2-    C8-   C11-   H12
     3     20     23     36      9 ;     0.00   1.04600   1 ;     O2-    C8-   C11-   H12
     3     20     23     37      9 ;     0.00   0.00000   0 ;     O2-    C8-   C11-   H13
     3     20     23     37      9 ;     0.00   1.04600   1 ;     O2-    C8-   C11-   H13
     4     13     12     21      9 ;     0.00   0.75312   3 ;     O3-    C1-     C-    C9
     4     13     14      5      9 ;     0.00   4.18400   1 ;     O3-    C1-    C2-    O4
     4     13     14      5      9 ;     0.00   6.02496   3 ;     O3-    C1-    C2-    O4
     4     13     14     15      9 ;     0.00   0.75312   3 ;     O3-    C1-    C2-    C3
     4     13     14     25      9 ;     0.00   0.00000   0 ;     O3-    C1-    C2-    H1
     4     13     14     25      9 ;     0.00   1.04600   1 ;     O3-    C1-    C2-    H1
     5     14     13     12      9 ;     0.00   0.75312   3 ;     O4-    C2-    C1-     C
     5     14     13     24      9 ;     0.00   0.00000   0 ;     O4-    C2-    C1-     H
     5     14     13     24      9 ;     0.00   1.04600   1 ;     O4-    C2-    C1-     H
     5     14     15     22      9 ;     0.00   0.75312   3 ;     O4-    C2-    C3-   C10
     5     14     15     26      9 ;     0.00   0.00000   0 ;     O4-    C2-    C3-    H2
     5     14     15     26      9 ;     0.00   1.04600   1 ;     O4-    C2-    C3-    H2
     6     17     16     27      9 ;     0.00   0.65084   3 ;     O5-    C5-    C4-    H3
     6     17     18      7      9 ;     0.00   4.18400   1 ;     O5-    C5-    C6-    O6
     6     17     18      7      9 ;     0.00   6.02496   3 ;     O5-    C5-    C6-    O6
     6     17     18     19      9 ;     0.00   0.75312   3 ;     O5-    C5-    C6-    C7
     6     17     18     29      9 ;     0.00   0.00000   0 ;     O5-    C5-    C6-    H5
     6     17     18     29      9 ;     0.00   1.04600   1 ;     O5-    C5-    C6-    H5
     7     18     17     16      9 ;     0.00   0.75312   3 ;     O6-    C6-    C5-    C4
     7     18     17     28      9 ;     0.00   0.00000   0 ;     O6-    C6-    C5-    H4
     7     18     17     28      9 ;     0.00   1.04600   1 ;     O6-    C6-    C5-    H4
     7     18     19      8      9 ;     0.00   4.18400   1 ;     O6-    C6-    C7-    O7
     7     18     19      8      9 ;     0.00   6.02496   3 ;     O6-    C6-    C7-    O7
     7     18     19     20      9 ;     0.00   0.75312   3 ;     O6-    C6-    C7-    C8
     7     18     19     30      9 ;     0.00   0.00000   0 ;     O6-    C6-    C7-    H6
     7     18     19     30      9 ;     0.00   1.04600   1 ;     O6-    C6-    C7-    H6
     8     19     18     17      9 ;     0.00   0.75312   3 ;     O7-    C7-    C6-    C5
     8     19     18     29      9 ;     0.00   0.00000   0 ;     O7-    C7-    C6-    H5
     8     19     18     29      9 ;     0.00   1.04600   1 ;     O7-    C7-    C6-    H5
     8     19     20     23      9 ;     0.00   0.75312   3 ;     O7-    C7-    C8-   C11
     8     19     20     31      9 ;     0.00   0.00000   0 ;     O7-    C7-    C8-    H7
     8     19     20     31      9 ;     0.00   1.04600   1 ;     O7-    C7-    C8-    H7
     9     21     12     13      9 ;     0.00   0.75312   3 ;     O8-    C9-     C-    C1
    10     22     15     14      9 ;     0.00   0.75312   3 ;     O9-   C10-    C3-    C2
    10     22     15     26      9 ;     0.00   0.00000   0 ;     O9-   C10-    C3-    H2
    10     22     15     26      9 ;     0.00   1.04600   1 ;     O9-   C10-    C3-    H2
    11     23     20     19      9 ;     0.00   0.75312   3 ;    O10-   C11-    C8-    C7
    11     23     20     31      9 ;     0.00   0.00000   0 ;    O10-   C11-    C8-    H7
    11     23     20     31      9 ;     0.00   1.04600   1 ;    O10-   C11-    C8-    H7
    12      1     15     14      9 ;     0.00   0.33472   2 ;      C-     O-    C3-    C2
    12      1     15     14      9 ;     0.00   3.13800   3 ;      C-     O-    C3-    C2
    12      1     15     14      9 ;   180.00   3.68192   1 ;      C-     O-    C3-    C2
    12      1     15     22      9 ;     0.00   0.33472   2 ;      C-     O-    C3-   C10
    12      1     15     22      9 ;     0.00   3.13800   3 ;      C-     O-    C3-   C10
    12      1     15     22      9 ;   180.00   3.68192   1 ;      C-     O-    C3-   C10
    12      1     15     26      9 ;     0.00   1.41001   3 ;      C-     O-    C3-    H2
    12      2     16     17      9 ;   180.00   0.71128   3 ;      C-    O1-    C4-    C5
    12      2     16     17      9 ;   180.00   4.18400   2 ;      C-    O1-    C4-    C5
    12      2     16     17      9 ;   180.00   8.82824   1 ;      C-    O1-    C4-    C5
    12      2     16     27      9 ;     0.00   1.60387   3 ;      C-    O1-    C4-    H3
    12     13      4     38      9 ;     0.00   0.25104   3 ;      C-    C1-    O3-   H14
    12     13     14     15      9 ;     0.00   2.17568   3 ;      C-    C1-    C2-    C3
    12     13     14     25      9 ;     0.00   0.65084   3 ;      C-    C1-    C2-    H1
    12     21      9     43      9 ;     0.00   0.25104   3 ;      C-    C9-    O8-   H19
    13     12      2     16      9 ;     0.00   0.33472   2 ;     C1-     C-    O1-    C4
    13     12      2     16      9 ;     0.00   3.13800   3 ;     C1-     C-    O1-    C4
    13     12      2     16      9 ;   180.00   3.68192   1 ;     C1-     C-    O1-    C4
    13     12     21     32      9 ;     0.00   0.65084   3 ;     C1-     C-    C9-    H8
    13     12     21     33      9 ;     0.00   0.65084   3 ;     C1-     C-    C9-    H9
    13     14      5     39      9 ;     0.00   0.25104   3 ;     C1-    C2-    O4-   H15
    13     14     15     22      9 ;     0.00   2.17568   3 ;     C1-    C2-    C3-   C10
    13     14     15     26      9 ;     0.00   0.65084   3 ;     C1-    C2-    C3-    H2
    14     13      4     38      9 ;     0.00   0.25104   3 ;     C2-    C1-    O3-   H14
    14     13     12     21      9 ;     0.00   2.17568   3 ;     C2-    C1-     C-    C9
    14     15     22     34      9 ;     0.00   0.65084   3 ;     C2-    C3-   C10-   H10
    14     15     22     35      9 ;     0.00   0.65084   3 ;     C2-    C3-   C10-   H11
    15      1     12      2      9 ;     0.00   3.55640   2 ;     C3-     O-     C-    O1
    15      1     12      2      9 ;     0.00   3.55640   3 ;     C3-     O-     C-    O1
    15      1     12      2      9 ;   180.00   1.92464   1 ;     C3-     O-     C-    O1
    15      1     12     13      9 ;     0.00   0.33472   2 ;     C3-     O-     C-    C1
    15      1     12     13      9 ;     0.00   3.13800   3 ;     C3-     O-     C-    C1
    15      1     12     13      9 ;   180.00   3.68192   1 ;     C3-     O-     C-    C1
    15      1     12     21      9 ;     0.00   0.33472   2 ;     C3-     O-     C-    C9
    15      1     12     21      9 ;     0.00   3.13800   3 ;     C3-     O-     C-    C9
    15      1     12     21      9 ;   180.00   3.68192   1 ;     C3-     O-     C-    C9
    15     14      5     39      9 ;     0.00   0.25104   3 ;     C3-    C2-    O4-   H15
    15     14     13     24      9 ;     0.00   0.65084   3 ;     C3-    C2-    C1-     H
    15     22     10     44      9 ;     0.00   0.25104   3 ;     C3-   C10-    O9-   H20
    16      2     12     21      9 ;     0.00   0.33472   2 ;     C4-    O1-     C-    C9
    16      2     12     21      9 ;     0.00   3.13800   3 ;     C4-    O1-     C-    C9
    16      2     12     21      9 ;   180.00   3.68192   1 ;     C4-    O1-     C-    C9
    16      3     20     19      9 ;     0.00   4.85344   3 ;     C4-    O2-    C8-    C7
    16      3     20     19      9 ;     0.00   5.77392   2 ;     C4-    O2-    C8-    C7
    16      3     20     19      9 ;   180.00   1.46440   1 ;     C4-    O2-    C8-    C7
    16      3     20     23      9 ;     0.00   0.33472   2 ;     C4-    O2-    C8-   C11
    16      3     20     23      9 ;     0.00   3.13800   3 ;     C4-    O2-    C8-   C11
    16      3     20     23      9 ;   180.00   3.68192   1 ;     C4-    O2-    C8-   C11
    16      3     20     31      9 ;     0.00   1.41001   3 ;     C4-    O2-    C8-    H7
    16     17      6     40      9 ;     0.00   0.25104   3 ;     C4-    C5-    O5-   H16
    16     17     18     19      9 ;     0.00   2.17568   3 ;     C4-    C5-    C6-    C7
    16     17     18     29      9 ;     0.00   0.65084   3 ;     C4-    C5-    C6-    H5
    17     16      3     20      9 ;     0.00   4.85344   3 ;     C5-    C4-    O2-    C8
    17     16      3     20      9 ;     0.00   5.77392   2 ;     C5-    C4-    O2-    C8
    17     16      3     20      9 ;   180.00   1.46440   1 ;     C5-    C4-    O2-    C8
    17     18      7     41      9 ;     0.00   0.25104   3 ;     C5-    C6-    O6-   H17
    17     18     19     20      9 ;     0.00   2.17568   3 ;     C5-    C6-    C7-    C8
    17     18     19     30      9 ;     0.00   0.65084   3 ;     C5-    C6-    C7-    H6
    18     17      6     40      9 ;     0.00   0.25104   3 ;     C6-    C5-    O5-   H16
    18     17     16     27      9 ;     0.00   0.65084   3 ;     C6-    C5-    C4-    H3
    18     19      8     42      9 ;     0.00   0.25104   3 ;     C6-    C7-    O7-   H18
    18     19     20     23      9 ;     0.00   2.17568   3 ;     C6-    C7-    C8-   C11
    18     19     20     31      9 ;     0.00   0.65084   3 ;     C6-    C7-    C8-    H7
    19     18      7     41      9 ;     0.00   0.25104   3 ;     C7-    C6-    O6-   H17
    19     18     17     28      9 ;     0.00   0.65084   3 ;     C7-    C6-    C5-    H4
    19     20     23     36      9 ;     0.00   0.65084   3 ;     C7-    C8-   C11-   H12
    19     20     23     37      9 ;     0.00   0.65084   3 ;     C7-    C8-   C11-   H13
    20      3     16     27      9 ;     0.00   1.60387   3 ;     C8-    O2-    C4-    H3
    20     19      8     42      9 ;     0.00   0.25104   3 ;     C8-    C7-    O7-   H18
    20     19     18     29      9 ;     0.00   0.65084   3 ;     C8-    C7-    C6-    H5
    20     23     11     45      9 ;     0.00   0.25104   3 ;     C8-   C11-   O10-   H21
    21     12     13     24      9 ;     0.00   0.65084   3 ;     C9-     C-    C1-     H
    22     15     14     25      9 ;     0.00   0.65084   3 ;    C10-    C3-    C2-    H1
    23     20     19     30      9 ;     0.00   0.65084   3 ;    C11-    C8-    C7-    H6
    24     13      4     38      9 ;     0.00   0.51463   3 ;      H-    C1-    O3-   H14
    24     13     14     25      9 ;     0.00   0.65084   3 ;      H-    C1-    C2-    H1
    25     14      5     39      9 ;     0.00   0.51463   3 ;     H1-    C2-    O4-   H15
    25     14     15     26      9 ;     0.00   0.65084   3 ;     H1-    C2-    C3-    H2
    26     15     22     34      9 ;     0.00   0.65084   3 ;     H2-    C3-   C10-   H10
    26     15     22     35      9 ;     0.00   0.65084   3 ;     H2-    C3-   C10-   H11
    27     16     17     28      9 ;     0.00   0.65084   3 ;     H3-    C4-    C5-    H4
    28     17      6     40      9 ;     0.00   0.51463   3 ;     H4-    C5-    O5-   H16
    28     17     18     29      9 ;     0.00   0.65084   3 ;     H4-    C5-    C6-    H5
    29     18      7     41      9 ;     0.00   0.51463   3 ;     H5-    C6-    O6-   H17
    29     18     19     30      9 ;     0.00   0.65084   3 ;     H5-    C6-    C7-    H6
    30     19      8     42      9 ;     0.00   0.51463   3 ;     H6-    C7-    O7-   H18
    30     19     20     31      9 ;     0.00   0.65084   3 ;     H6-    C7-    C8-    H7
    31     20     23     36      9 ;     0.00   0.65084   3 ;     H7-    C8-   C11-   H12
    31     20     23     37      9 ;     0.00   0.65084   3 ;     H7-    C8-   C11-   H13
    32     21      9     43      9 ;     0.00   0.51463   3 ;     H8-    C9-    O8-   H19
    33     21      9     43      9 ;     0.00   0.51463   3 ;     H9-    C9-    O8-   H19
    34     22     10     44      9 ;     0.00   0.51463   3 ;    H10-   C10-    O9-   H20
    35     22     10     44      9 ;     0.00   0.51463   3 ;    H11-   C10-    O9-   H20
    36     23     11     45      9 ;     0.00   0.51463   3 ;    H12-   C11-   O10-   H21
    37     23     11     45      9 ;     0.00   0.51463   3 ;    H13-   C11-   O10-   H21
