; sucrose_GMX.top created by acpype (v: 2023.10.27) on Mon Feb  9 17:59:15 2026

[ defaults ]
; nbfunc        comb-rule       gen-pairs       fudgeLJ fudgeQQ
1               2               yes             0.5     0.8333333333

; Include sucrose_GMX.itp topology
#include "sucrose_GMX.itp"

; Ligand position restraints
#ifdef POSRES_LIG
#include "posre_sucrose.itp"
#endif

[ system ]
 sucrose

[ molecules ]
; Compound        nmols
 sucrose          1     
