sucrose_GMX.gro created by acpype (v: 2023.10.27) on Mon Feb  9 17:59:15 2026
 45
    1  UNL    O    1  -0.147   0.044  -0.092
    1  UNL   O1    2  -0.060  -0.089   0.081
    1  UNL   O2    3   0.093   0.048  -0.030
    1  UNL   O3    4  -0.307  -0.201   0.119
    1  UNL   O4    5  -0.462   0.063   0.073
    1  UNL   O5    6   0.122   0.022   0.257
    1  UNL   O6    7   0.361  -0.173   0.064
    1  UNL   O7    8   0.315   0.183   0.115
    1  UNL   O8    9  -0.196  -0.185  -0.243
    1  UNL   O9   10  -0.139   0.325  -0.089
    1  UNL  O10   11   0.384   0.021  -0.250
    1  UNL    C   12  -0.150  -0.086  -0.030
    1  UNL   C1   13  -0.293  -0.102   0.019
    1  UNL   C2   14  -0.323   0.037   0.069
    1  UNL   C3   15  -0.255   0.122  -0.038
    1  UNL   C4   16   0.075  -0.074   0.040
    1  UNL   C5   17   0.165  -0.079   0.164
    1  UNL   C6   18   0.312  -0.056   0.128
    1  UNL   C7   19   0.329   0.066   0.035
    1  UNL   C8   20   0.226   0.072  -0.079
    1  UNL   C9   21  -0.109  -0.193  -0.131
    1  UNL  C10   22  -0.200   0.253   0.017
    1  UNL  C11   23   0.259  -0.019  -0.197
    1  UNL    H   24  -0.362  -0.127  -0.063
    1  UNL   H1   25  -0.282   0.053   0.169
    1  UNL   H2   26  -0.323   0.144  -0.122
    1  UNL   H3   27   0.106  -0.160  -0.021
    1  UNL   H4   28   0.153  -0.175   0.214
    1  UNL   H5   29   0.369  -0.040   0.220
    1  UNL   H6   30   0.431   0.068  -0.005
    1  UNL   H7   31   0.224   0.175  -0.116
    1  UNL   H8   32  -0.113  -0.293  -0.088
    1  UNL   H9   33  -0.010  -0.177  -0.174
    1  UNL  H10   34  -0.125   0.236   0.094
    1  UNL  H11   35  -0.280   0.315   0.058
    1  UNL  H12   36   0.182  -0.011  -0.274
    1  UNL  H13   37   0.265  -0.125  -0.169
    1  UNL  H14   38  -0.398  -0.195   0.153
    1  UNL  H15   39  -0.474   0.157   0.098
    1  UNL  H16   40   0.028   0.007   0.274
    1  UNL  H17   41   0.455  -0.158   0.043
    1  UNL  H18   42   0.334   0.260   0.059
    1  UNL  H19   43  -0.170  -0.255  -0.305
    1  UNL  H20   44  -0.068   0.268  -0.125
    1  UNL  H21   45   0.375   0.112  -0.281
   18.57000    12.35400    11.58400
