5988
    45
  -1.4680000   0.4390000  -0.9180000  -0.6030000  -0.8920000   0.8120000
   0.9280000   0.4830000  -0.3050000  -3.0700000  -2.0050000   1.1930000
  -4.6200000   0.6320000   0.7330000   1.2230000   0.2160000   2.5660000
   3.6110000  -1.7290000   0.6380000   3.1500000   1.8350000   1.1540000
  -1.9580000  -1.8480000  -2.4300000  -1.3850000   3.2450000  -0.8930000
   3.8370000   0.2060000  -2.5040000  -1.4950000  -0.8630000  -0.3040000
  -2.9300000  -1.0230000   0.1870000  -3.2290000   0.3740000   0.6890000
  -2.5500000   1.2240000  -0.3790000   0.7530000  -0.7450000   0.3970000
   1.6460000  -0.7850000   1.6390000   3.1150000  -0.5550000   1.2750000
   3.2920000   0.6580000   0.3520000   2.2580000   0.7200000  -0.7860000
  -1.0900000  -1.9270000  -1.3120000  -2.0030000   2.5320000   0.1650000
   2.5890000  -0.1900000  -1.9670000  -3.6220000  -1.2730000  -0.6270000
  -2.8150000   0.5300000   1.6920000  -3.2290000   1.4360000  -1.2150000
   1.0590000  -1.5990000  -0.2110000   1.5260000  -1.7530000   2.1410000
   3.6910000  -0.4030000   2.1960000   4.3100000   0.6750000  -0.0510000
   2.2440000   1.7500000  -1.1640000  -1.1310000  -2.9320000  -0.8800000
  -0.1000000  -1.7690000  -1.7400000  -1.2450000   2.3610000   0.9370000
  -2.7990000   3.1540000   0.5840000   1.8210000  -0.1130000  -2.7440000
   2.6530000  -1.2450000  -1.6890000  -3.9800000  -1.9480000   1.5320000
  -4.7360000   1.5660000   0.9750000   0.2790000   0.0670000   2.7430000
   4.5490000  -1.5770000   0.4330000   3.3430000   2.6010000   0.5870000
  -1.6960000  -2.5510000  -3.0490000  -0.6790000   2.6810000  -1.2540000
   3.7490000   1.1230000  -2.8130000
