%VERSION  VERSION_STAMP = V0001.000  DATE = 02/09/26  17:59:44                  
%FLAG TITLE                                                                     
%FORMAT(20a4)                                                                   
5988                                                                            
%FLAG POINTERS                                                                  
%FORMAT(10I8)                                                                   
      45       6      22      24      47      36     105     102       0       0
     261       1      24      36     102      14      34      33       8       0
       0       0       0       0       0       0       0       0      45       0
       0
%FLAG ATOM_NAME                                                                 
%FORMAT(20a4)                                                                   
O   O1  O2  O3  O4  O5  O6  O7  O8  O9  O10 C   C1  C2  C3  C4  C5  C6  C7  C8  
C9  C10 C11 H   H1  H2  H3  H4  H5  H6  H7  H8  H9  H10 H11 H12 H13 H14 H15 H16 
H17 H18 H19 H20 H21 
%FLAG CHARGE                                                                    
%FORMAT(5E16.8)                                                                 
 -7.73718858E+00 -7.66429938E+00 -7.91941158E+00 -1.03830665E+01 -1.08021794E+01
 -1.09844024E+01 -1.09661801E+01 -1.07292902E+01 -1.07110679E+01 -1.09479578E+01
 -1.07839571E+01  5.67806868E+00  2.40716583E+00  1.45960623E+00  1.25916093E+00
  5.55597927E+00  2.40716583E+00  1.91516373E+00  1.71471843E+00  1.45960623E+00
  2.26685412E+00  2.30329872E+00  1.68374052E+00  1.74387411E+00  1.21542741E+00
  1.57987341E+00  1.16076051E+00  1.37942811E+00  1.39765041E+00  1.70742951E+00
  1.67098491E+00  1.25187201E+00  1.25187201E+00  8.96537160E-01  8.96537160E-01
  1.14253821E+00  1.14253821E+00  7.50758760E+00  7.47114300E+00  7.89025590E+00
  7.59869910E+00  7.79914440E+00  7.61692140E+00  7.81736670E+00  7.34358690E+00
%FLAG ATOMIC_NUMBER                                                             
%FORMAT(10I8)                                                                   
       8       8       8       8       8       8       8       8       8       8
       8       6       6       6       6       6       6       6       6       6
       6       6       6       1       1       1       1       1       1       1
       1       1       1       1       1       1       1       1       1       1
       1       1       1       1       1
%FLAG MASS                                                                      
%FORMAT(5E16.8)                                                                 
  1.60000000E+01  1.60000000E+01  1.60000000E+01  1.60000000E+01  1.60000000E+01
  1.60000000E+01  1.60000000E+01  1.60000000E+01  1.60000000E+01  1.60000000E+01
  1.60000000E+01  1.20100000E+01  1.20100000E+01  1.20100000E+01  1.20100000E+01
  1.20100000E+01  1.20100000E+01  1.20100000E+01  1.20100000E+01  1.20100000E+01
  1.20100000E+01  1.20100000E+01  1.20100000E+01  1.00800000E+00  1.00800000E+00
  1.00800000E+00  1.00800000E+00  1.00800000E+00  1.00800000E+00  1.00800000E+00
  1.00800000E+00  1.00800000E+00  1.00800000E+00  1.00800000E+00  1.00800000E+00
  1.00800000E+00  1.00800000E+00  1.00800000E+00  1.00800000E+00  1.00800000E+00
  1.00800000E+00  1.00800000E+00  1.00800000E+00  1.00800000E+00  1.00800000E+00
%FLAG ATOM_TYPE_INDEX                                                           
%FORMAT(10I8)                                                                   
       1       1       1       2       2       2       2       2       2       2
       2       3       3       3       3       3       3       3       3       3
       3       3       3       4       4       4       5       4       4       4
       4       4       4       4       4       4       4       6       6       6
       6       6       6       6       6
%FLAG NUMBER_EXCLUDED_ATOMS                                                     
%FORMAT(10I8)                                                                   
      19      18      16       9       9       9      10       9       6       7
       7      15      12      10       9      11       9      11      10       9
       4       5       5       2       2       2       1       2       2       2
       2       2       1       2       1       2       1       1       1       1
       1       1       1       1       1
%FLAG NONBONDED_PARM_INDEX                                                      
%FORMAT(10I8)                                                                   
       1       2       4       7      11      16       2       3       5       8
      12      17       4       5       6       9      13      18       7       8
       9      10      14      19      11      12      13      14      15      20
      16      17      18      19      20      21
%FLAG RESIDUE_LABEL                                                             
%FORMAT(20a4)                                                                   
UNL 
%FLAG RESIDUE_POINTER                                                           
%FORMAT(10I8)                                                                   
       1
%FLAG BOND_FORCE_CONSTANT                                                       
%FORMAT(5E16.8)                                                                 
  2.75610000E+02  2.79780000E+02  2.89690000E+02  5.35510000E+02  2.85250000E+02
  2.85150000E+02  2.20100000E+02  2.27640000E+02  3.43780000E+02  2.26810000E+02
  3.41880000E+02  3.42020000E+02  2.23800000E+02  3.44220000E+02
%FLAG BOND_EQUIL_VALUE                                                          
%FORMAT(5E16.8)                                                                 
  1.43460000E+00  1.43000000E+00  1.41940000E+00  9.72500000E-01  1.42410000E+00
  1.42420000E+00  1.54830000E+00  1.53720000E+00  1.09720000E+00  1.53840000E+00
  1.09850000E+00  1.09840000E+00  1.54280000E+00  1.09690000E+00
%FLAG ANGLE_FORCE_CONSTANT                                                      
%FORMAT(5E16.8)                                                                 
  9.79400000E+01  7.74300000E+01  7.67500000E+01  5.64400000E+01  9.75300000E+01
  7.64200000E+01  5.63300000E+01  7.74500000E+01  5.66800000E+01  7.58300000E+01
  5.64700000E+01  7.65600000E+01  5.63900000E+01  7.66700000E+01  5.62900000E+01
  7.59500000E+01  8.96100000E+01  8.74900000E+01  6.18400000E+01  4.26500000E+01
  4.32800000E+01  6.54000000E+01  5.93300000E+01  8.82800000E+01  6.01800000E+01
  4.32800000E+01  6.52300000E+01  4.31200000E+01  5.99900000E+01  4.31900000E+01
  6.51300000E+01  4.33100000E+01  4.33000000E+01  3.56400000E+01
%FLAG ANGLE_EQUIL_VALUE                                                         
%FORMAT(5E16.8)                                                                 
  1.88303654E+00  1.85249326E+00  1.90188610E+00  1.89298492E+00  1.91113635E+00
  1.92143380E+00  1.91008915E+00  1.86453604E+00  1.88635266E+00  1.94813735E+00
  1.92457539E+00  1.92073567E+00  1.91916487E+00  1.91724501E+00  1.92649525E+00
  1.94517029E+00  1.90694756E+00  2.00712950E+00  1.81217614E+00  1.94028336E+00
  1.90904195E+00  1.87047016E+00  1.98269488E+00  1.97745889E+00  1.93836350E+00
  1.90555129E+00  1.86872483E+00  1.91951393E+00  1.94482122E+00  1.90467863E+00
  1.87430989E+00  1.90659849E+00  1.89455572E+00  1.89455572E+00
%FLAG DIHEDRAL_FORCE_CONSTANT                                                   
%FORMAT(5E16.8)                                                                 
  5.82000000E+00  0.00000000E+00  0.00000000E+00  5.90000000E-01  1.26000000E+00
  7.90000000E-01  1.55555556E-01  2.50000000E-01  4.60000000E-01  8.50000000E-01
  8.50000000E-01  8.80000000E-01  1.49000000E+00  3.00000000E-02  6.70000000E-01
  7.30000000E-01  1.07000000E+00  1.80000000E-01  1.00000000E+00  1.44000000E+00
  8.00000000E-02  7.50000000E-01  3.37000000E-01  2.11000000E+00  1.00000000E+00
  1.70000000E-01  3.83333333E-01  6.00000000E-02  5.20000000E-01  3.50000000E-01
  1.38000000E+00  1.16000000E+00  1.23000000E-01
%FLAG DIHEDRAL_PERIODICITY                                                      
%FORMAT(5E16.8)                                                                 
  1.00000000E+00  2.00000000E+00  3.00000000E+00  1.00000000E+00  2.00000000E+00
  3.00000000E+00  3.00000000E+00  1.00000000E+00  1.00000000E+00  2.00000000E+00
  3.00000000E+00  1.00000000E+00  2.00000000E+00  3.00000000E+00  1.00000000E+00
  2.00000000E+00  3.00000000E+00  3.00000000E+00  1.00000000E+00  3.00000000E+00
  2.00000000E+00  3.00000000E+00  3.00000000E+00  1.00000000E+00  2.00000000E+00
  3.00000000E+00  3.00000000E+00  3.00000000E+00  3.00000000E+00  1.00000000E+00
  2.00000000E+00  3.00000000E+00  3.00000000E+00
%FLAG DIHEDRAL_PHASE                                                            
%FORMAT(5E16.8)                                                                 
  0.00000000E+00  0.00000000E+00  0.00000000E+00  0.00000000E+00  0.00000000E+00
  0.00000000E+00  0.00000000E+00  0.00000000E+00  3.14159400E+00  0.00000000E+00
  0.00000000E+00  3.14159400E+00  0.00000000E+00  0.00000000E+00  3.14159400E+00
  3.14159400E+00  0.00000000E+00  0.00000000E+00  0.00000000E+00  0.00000000E+00
  0.00000000E+00  0.00000000E+00  0.00000000E+00  3.14159400E+00  3.14159400E+00
  3.14159400E+00  0.00000000E+00  0.00000000E+00  0.00000000E+00  3.14159400E+00
  0.00000000E+00  0.00000000E+00  0.00000000E+00
%FLAG SCEE_SCALE_FACTOR                                                         
%FORMAT(5E16.8)                                                                 
  1.20000000E+00  1.20000000E+00  1.20000000E+00  1.20000000E+00  1.20000000E+00
  1.20000000E+00  1.20000000E+00  1.20000000E+00  1.20000000E+00  1.20000000E+00
  1.20000000E+00  1.20000000E+00  1.20000000E+00  1.20000000E+00  1.20000000E+00
  1.20000000E+00  1.20000000E+00  1.20000000E+00  1.20000000E+00  1.20000000E+00
  1.20000000E+00  1.20000000E+00  1.20000000E+00  1.20000000E+00  1.20000000E+00
  1.20000000E+00  1.20000000E+00  1.20000000E+00  1.20000000E+00  1.20000000E+00
  1.20000000E+00  1.20000000E+00  1.20000000E+00
%FLAG SCNB_SCALE_FACTOR                                                         
%FORMAT(5E16.8)                                                                 
  2.00000000E+00  2.00000000E+00  2.00000000E+00  2.00000000E+00  2.00000000E+00
  2.00000000E+00  2.00000000E+00  2.00000000E+00  2.00000000E+00  2.00000000E+00
  2.00000000E+00  2.00000000E+00  2.00000000E+00  2.00000000E+00  2.00000000E+00
  2.00000000E+00  2.00000000E+00  2.00000000E+00  2.00000000E+00  2.00000000E+00
  2.00000000E+00  2.00000000E+00  2.00000000E+00  2.00000000E+00  2.00000000E+00
  2.00000000E+00  2.00000000E+00  2.00000000E+00  2.00000000E+00  2.00000000E+00
  2.00000000E+00  2.00000000E+00  2.00000000E+00
%FLAG SOLTY                                                                     
%FORMAT(5E16.8)                                                                 
  0.00000000E+00  0.00000000E+00  0.00000000E+00  0.00000000E+00  0.00000000E+00
  0.00000000E+00  0.00000000E+00  0.00000000E+00
%FLAG LENNARD_JONES_ACOEF                                                       
%FORMAT(5E16.8)                                                                 
  2.83662575E+05  3.78207390E+05  5.03152404E+05  5.42502534E+05  7.18991463E+05
  1.02073671E+06  3.44374471E+04  4.69084694E+04  6.97998263E+04  3.39005767E+03
  2.33261683E+04  3.19666529E+04  4.80619274E+04  2.16218723E+03  1.35510742E+03
  1.16469347E+02  1.74176419E+02  3.03553352E+02  4.36660257E+00  2.07292270E+00
  1.10360882E-05
%FLAG LENNARD_JONES_BCOEF                                                       
%FORMAT(5E16.8)                                                                 
  2.87011518E+02  3.52573684E+02  4.32634597E+02  4.38146883E+02  5.36620538E+02
  6.63431737E+02  7.31636661E+01  9.08431526E+01  1.14981426E+02  1.67944276E+01
  6.02145835E+01  7.49920368E+01  9.54115851E+01  1.34124560E+01  1.06181419E+01
  2.93355636E+00  3.81654050E+00  5.22789272E+00  4.15568027E-01  2.86326700E-01
  4.55498033E-04
%FLAG BONDS_INC_HYDROGEN                                                        
%FORMAT(10I8)                                                                   
       9     111       4      12     114       4      15     117       4      18
     120       4      21     123       4      24     126       4      27     129
       4      30     132       4      36      69       9      39      72       9
      42      75       9      45      78      11      48      81      12      51
      84      12      54      87      12      57      90      12      60      93
      14      60      96      14      63      99      14      63     102      14
      66     105      14      66     108      14
%FLAG BONDS_WITHOUT_HYDROGEN                                                    
%FORMAT(10I8)                                                                   
       0      33       1       0      42       1       3      33       1       3
      45       2       6      45       2       6      57       2       9      36
       3      12      39       3      15      48       5      18      51       5
      21      54       5      24      60       6      27      63       6      30
      66       6      33      36       7      33      60       8      36      39
       7      39      42       7      42      63       8      45      48      10
      48      51      10      51      54      10      54      57      10      57
      66      13
%FLAG ANGLES_INC_HYDROGEN                                                       
%FORMAT(10I8)                                                                   
       0      42      75       4       3      45      78       7       6      45
      78       7       6      57      90       9       9      36      69      11
      12      39      72      11      15      48      81      13      18      51
      84      13      21      54      87      13      24      60      93      15
      24      60      96      15      27      63      99      15      27      63
     102      15      30      66     105      15      30      66     108      15
      33      36      69      20      33      60      93      21      33      60
      96      21      36       9     111      22      36      39      72      20
      39      12     114      22      39      36      69      20      39      42
      75      20      42      39      72      20      42      63      99      21
      42      63     102      21      45      48      81      26      48      15
     117      27      48      45      78      28      48      51      84      26
      51      18     120      27      51      48      81      26      51      54
      87      26      54      21     123      27      54      51      84      26
      54      57      90      26      57      54      87      26      57      66
     105      30      57      66     108      30      60      24     126      31
      63      27     129      31      63      42      75      32      66      30
     132      31      66      57      90      33      93      60      96      34
      99      63     102      34     105      66     108      34
%FLAG ANGLES_WITHOUT_HYDROGEN                                                   
%FORMAT(10I8)                                                                   
       0      33       3       1       0      33      36       2       0      33
      60       3       0      42      39       2       0      42      63       3
       3      33      36       2       3      33      60       3       3      45
       6       5       3      45      48       6       6      45      48       6
       6      57      54       6       6      57      66       8       9      36
      33      10       9      36      39      10      12      39      36      10
      12      39      42      10      15      48      45      12      15      48
      51      12      18      51      48      12      18      51      54      12
      21      54      51      12      21      54      57      12      24      60
      33      14      27      63      42      14      30      66      57      16
      33       0      42      17      33       3      45      18      33      36
      39      19      36      33      60      23      36      39      42      19
      39      42      63      23      45       6      57      24      45      48
      51      25      48      51      54      25      51      54      57      25
      54      57      66      29
%FLAG DIHEDRALS_INC_HYDROGEN                                                    
%FORMAT(10I8)                                                                   
       0      33      36      69       8       0      33     -36      69       3
       0      33      60      93       8       0      33     -60      93       3
       0      33      60      96       8       0      33     -60      96       3
       0      42      39      72       8       0      42     -39      72       3
       0      42      63      99       8       0      42     -63      99       3
       0      42      63     102       8       0      42     -63     102       3
       3      33      36      69       8       3      33     -36      69       3
       3      33      60      93       8       3      33     -60      93       3
       3      33      60      96       8       3      33     -60      96       3
       3      45      48      81       8       3      45     -48      81       3
       6      45      48      81       8       6      45     -48      81       3
       6      57      54      87       8       6      57     -54      87       3
       6      57      66     105       8       6      57     -66     105       3
       6      57      66     108       8       6      57     -66     108       3
       9      36      39      72       8       9      36     -39      72       3
      12      39      36      69       8      12      39     -36      69       3
      12      39      42      75       8      12      39     -42      75       3
      15      48      45      78       7      15      48      51      84       8
      15      48     -51      84       3      18      51      48      81       8
      18      51     -48      81       3      18      51      54      87       8
      18      51     -54      87       3      21      54      51      84       8
      21      54     -51      84       3      21      54      57      90       8
      21      54     -57      90       3      27      63      42      75       8
      27      63     -42      75       3      30      66      57      90       8
      30      66     -57      90       3      33       0      42      75      23
      33       3      45      78      27      33      36       9     111      28
      33      36      39      72       7      33      60      24     126      28
      36      33      60      93       7      36      33      60      96       7
      36      39      12     114      28      36      39      42      75       7
      39      36       9     111      28      39      42      63      99       7
      39      42      63     102       7      42      39      12     114      28
      42      39      36      69       7      42      63      27     129      28
      45       6      57      90      23      45      48      15     117      28
      45      48      51      84       7      48      51      18     120      28
      48      51      54      87       7      51      48      15     117      28
      51      48      45      78       7      51      54      21     123      28
      51      54      57      90       7      54      51      18     120      28
      54      51      48      81       7      54      57      66     105       7
      54      57      66     108       7      57       6      45      78      27
      57      54      21     123      28      57      54      51      84       7
      57      66      30     132      28      60      33      36      69       7
      63      42      39      72       7      66      57      54      87       7
      69      36       9     111      33      69      36      39      72       7
      72      39      12     114      33      72      39      42      75       7
      75      42      63      99       7      75      42      63     102       7
      78      45      48      81       7      81      48      15     117      33
      81      48      51      84       7      84      51      18     120      33
      84      51      54      87       7      87      54      21     123      33
      87      54      57      90       7      90      57      66     105       7
      90      57      66     108       7      93      60      24     126      33
      96      60      24     126      33      99      63      27     129      33
     102      63      27     129      33     105      66      30     132      33
     108      66      30     132      33
%FLAG DIHEDRALS_WITHOUT_HYDROGEN                                                
%FORMAT(10I8)                                                                   
       0      33       3      45       1       0      33      -3      45       2
       0      33      -3      45       3       0      33      36       9       4
       0      33     -36       9       5       0      33     -36       9       6
       0      33     -36      39       7       0      33      60      24       4
       0      33     -60      24       5       0      33     -60      24       6
       0      42      39      12       4       0      42     -39      12       5
       0      42     -39      12       6       0      42     -39      36       7
       0      42      63      27       4       0      42     -63      27       5
       0      42     -63      27       6      42       0      33       3       9
      42       0     -33       3      10      42       0     -33       3      11
       3      33      36       9       4       3      33     -36       9       5
       3      33     -36       9       6       3      33      36      39       7
       3      33      60      24       4       3      33     -60      24       5
       3      33     -60      24       6       3      45       6      57      12
       3      45      -6      57      13       3      45      -6      57      14
       3      45      48      15      15       3      45     -48      15      16
       3      45     -48      15      17       3      45      48      51       7
       6      45       3      33       9       6      45      -3      33      10
       6      45      -3      33      11       6      45      48      15      15
       6      45     -48      15      16       6      45     -48      15      17
       6      45      48      51       7       6      57      54      21      15
       6      57     -54      21      16       6      57     -54      21      17
       6      57     -54      51       7       6      57      66      30      15
       6      57     -66      30      16       6      57     -66      30      17
       9      36      33      60      18       9      36      39      12      19
       9      36     -39      12      20       9      36      39      42      18
      12      39      36      33      18      12      39      42      63      18
      15      48      51      18      19      15      48     -51      18      20
      15      48      51      54      18      18      51      48      45      18
      18      51      54      21      19      18      51     -54      21      20
      18      51      54      57      18      21      54      51      48      18
      21      54      57      66      18      24      60      33      36      18
      27      63      42      39      18      30      66      57      54      18
      33       0     -42      39      12      33       0     -42      39      21
      33       0     -42      39      22      33       0      42      63      12
      33       0     -42      63      21      33       0     -42      63      22
      33       3      45      48      24      33       3     -45      48      25
      33       3     -45      48      26      33      36     -39      42      29
      42       0     -33      36      12      42       0     -33      36      21
      42       0     -33      36      22      36      33       3      45      12
      36      33      -3      45      21      36      33      -3      45      22
      36      39      42      63      29      39      36      33      60      29
      42       0      33      60      12      42       0     -33      60      21
      42       0     -33      60      22      45       3      33      60      12
      45       3     -33      60      21      45       3     -33      60      22
      45       6      57      54      30      45       6     -57      54      31
      45       6     -57      54      32      45       6      57      66      12
      45       6     -57      66      21      45       6     -57      66      22
      45      48     -51      54      29      48      45       6      57      30
      48      45      -6      57      31      48      45      -6      57      32
      48      51     -54      57      29      51      54      57      66      29
%FLAG EXCLUDED_ATOMS_LIST                                                       
%FORMAT(10I8)                                                                   
       2       4       5       9      10      12      13      14      15      16
      21      22      24      25      26      32      33      34      35       3
       4       6       9      12      13      14      15      16      17      18
      20      21      24      27      28      32      33       6       8      11
      12      16      17      18      19      20      23      27      28      30
      31      36      37       5      12      13      14      15      21      24
      25      38      12      13      14      15      22      24      25      26
      39       7      16      17      18      19      27      28      29      40
       8      16      17      18      19      20      28      29      30      41
      17      18      19      20      23      29      30      31      42      12
      13      21      32      33      43      14      15      22      26      34
      35      44      19      20      23      31      36      37      45      13
      14      15      16      17      21      22      24      25      26      27
      32      33      38      43      14      15      16      21      22      24
      25      26      32      33      38      39      15      21      22      24
      25      26      34      35      38      39      21      22      24      25
      26      34      35      39      44      17      18      19      20      21
      23      27      28      29      31      40      18      19      20      27
      28      29      30      40      41      19      20      23      27      28
      29      30      31      40      41      42      20      23      28      29
      30      31      36      37      41      42      23      27      29      30
      31      36      37      42      45      24      32      33      43      25
      26      34      35      44      30      31      36      37      45      25
      38      26      39      34      35      28      29      40      30      41
      31      42      36      37      33      43      43      35      44      44
      37      45      45       0       0       0       0       0       0       0
       0
%FLAG HBOND_ACOEF                                                               
%FORMAT(5E16.8)                                                                 

%FLAG HBOND_BCOEF                                                               
%FORMAT(5E16.8)                                                                 

%FLAG HBCUT                                                                     
%FORMAT(5E16.8)                                                                 

%FLAG AMBER_ATOM_TYPE                                                           
%FORMAT(20a4)                                                                   
os  os  os  oh  oh  oh  oh  oh  oh  oh  oh  c5  c5  c5  c5  c6  c6  c6  c6  c6  
c3  c3  c3  h1  h1  h1  h2  h1  h1  h1  h1  h1  h1  h1  h1  h1  h1  ho  ho  ho  
ho  ho  ho  ho  ho  
%FLAG TREE_CHAIN_CLASSIFICATION                                                 
%FORMAT(20a4)                                                                   
BLA BLA BLA BLA BLA BLA BLA BLA BLA BLA BLA BLA BLA BLA BLA BLA BLA BLA BLA BLA 
BLA BLA BLA BLA BLA BLA BLA BLA BLA BLA BLA BLA BLA BLA BLA BLA BLA BLA BLA BLA 
BLA BLA BLA BLA BLA 
%FLAG JOIN_ARRAY                                                                
%FORMAT(10I8)                                                                   
       0       0       0       0       0       0       0       0       0       0
       0       0       0       0       0       0       0       0       0       0
       0       0       0       0       0       0       0       0       0       0
       0       0       0       0       0       0       0       0       0       0
       0       0       0       0       0
%FLAG IROTAT                                                                    
%FORMAT(10I8)                                                                   
       0       0       0       0       0       0       0       0       0       0
       0       0       0       0       0       0       0       0       0       0
       0       0       0       0       0       0       0       0       0       0
       0       0       0       0       0       0       0       0       0       0
       0       0       0       0       0
%FLAG RADIUS_SET                                                                
%FORMAT(1a80)                                                                   
modified Bondi radii (mbondi)                                                   
%FLAG RADII                                                                     
%FORMAT(5E16.8)                                                                 
  1.50000000E+00  1.50000000E+00  1.50000000E+00  1.50000000E+00  1.50000000E+00
  1.50000000E+00  1.50000000E+00  1.50000000E+00  1.50000000E+00  1.50000000E+00
  1.50000000E+00  1.70000000E+00  1.70000000E+00  1.70000000E+00  1.70000000E+00
  1.50000000E+00  1.50000000E+00  1.50000000E+00  1.50000000E+00  1.50000000E+00
  1.70000000E+00  1.70000000E+00  1.70000000E+00  1.30000000E+00  1.30000000E+00
  1.30000000E+00  1.30000000E+00  1.30000000E+00  1.30000000E+00  1.30000000E+00
  1.30000000E+00  1.30000000E+00  1.30000000E+00  1.30000000E+00  1.30000000E+00
  1.30000000E+00  1.30000000E+00  8.00000000E-01  8.00000000E-01  8.00000000E-01
  8.00000000E-01  8.00000000E-01  8.00000000E-01  8.00000000E-01  8.00000000E-01
%FLAG SCREEN                                                                    
%FORMAT(5E16.8)                                                                 
  8.50000000E-01  8.50000000E-01  8.50000000E-01  8.50000000E-01  8.50000000E-01
  8.50000000E-01  8.50000000E-01  8.50000000E-01  8.50000000E-01  8.50000000E-01
  8.50000000E-01  7.20000000E-01  7.20000000E-01  7.20000000E-01  7.20000000E-01
  8.00000000E-01  8.00000000E-01  8.00000000E-01  8.00000000E-01  8.00000000E-01
  7.20000000E-01  7.20000000E-01  7.20000000E-01  8.50000000E-01  8.50000000E-01
  8.50000000E-01  8.50000000E-01  8.50000000E-01  8.50000000E-01  8.50000000E-01
  8.50000000E-01  8.50000000E-01  8.50000000E-01  8.50000000E-01  8.50000000E-01
  8.50000000E-01  8.50000000E-01  8.50000000E-01  8.50000000E-01  8.50000000E-01
  8.50000000E-01  8.50000000E-01  8.50000000E-01  8.50000000E-01  8.50000000E-01
%FLAG IPOL                                                                      
%FORMAT(1I8)                                                                    
       0
