; cytosine_GMX_OPLS.itp created by acpype (v: 2023.10.27) on Mon Feb  9 17:39:42 2026

; For OPLS atomtypes manual fine tuning
; AC_at:OPLS_at:OPLScode: Possible_Alternatives (see ffoplsaa.atp and ffoplsaanb.itp)
; o:O:opls_236: ['272']
; ns:x:opls_x: []
; nv:x:opls_x: []
; nc:NB:opls_511: []
; cc:C*:opls_500: ['506', '507', '508', '514']
; cd:C*:opls_500: ['506', '507', '508', '514']
; c:C:opls_235: ['271']
; hn:H:opls_240: ['241', '290', '301', '304', '310', '504', '513']
; ha:HA:opls_146: []
; h4:HA:opls_146: []

[ moleculetype ]
;name            nrexcl
 cytosine         3

[ atoms ]
;   nr  type  resi  res  atom  cgnr     charge      mass       ; qtot   bond_type
     1 opls_236     1   UNL     O    1    -0.607500     15.99940 ; qtot -0.608  O   
     2 opls_x     1   UNL     N    2    -0.496100      0.00000 ; qtot -1.104  x   
     3 opls_x     1   UNL    N1    3    -0.863600      0.00000 ; qtot -1.967  x   
     4 opls_511     1   UNL    N2    4    -0.651100     14.00670 ; qtot -2.618  NB  
     5 opls_500     1   UNL     C    5     0.334600     12.01100 ; qtot -2.284  C*  
     6 opls_500     1   UNL    C1    6    -0.489600     12.01100 ; qtot -2.773  C*  
     7 opls_235     1   UNL    C2    7     0.821900     12.01100 ; qtot -1.951  C   
     8 opls_500     1   UNL    C3    8     0.568500     12.01100 ; qtot -1.383  C*  
     9 opls_240     1   UNL     H    9     0.332500      1.00800 ; qtot -1.050  H   
    10 opls_146     1   UNL    H1   10     0.155000      1.00800 ; qtot -0.895  HA  
    11 opls_146     1   UNL    H2   11     0.035800      1.00800 ; qtot -0.860  HA  
    12 opls_240     1   UNL    H3   12     0.429800      1.00800 ; qtot -0.430  H   
    13 opls_240     1   UNL    H4   13     0.429800      1.00800 ; qtot  0.000  H   

[ bonds ]
;   ai     aj funct   r             k
     1      7   1 ;    1.2190e-01    4.9421e+05 ;      O - C2          O - C     
     2      5   1 ;    1.3804e-01    2.8065e+05 ;      N - C           x - C*    
     2      7   1 ;    1.3798e-01    2.8122e+05 ;      N - C2          x - C     
     2      9   1 ;    1.0132e-01    3.9630e+05 ;      N - H           x - H     
     3      5   1 ;    1.3685e-01    2.9226e+05 ;     N1 - C           x - C*    
     3     12   1 ;    1.0114e-01    3.9961e+05 ;     N1 - H3          x - H     
     3     13   1 ;    1.0114e-01    3.9961e+05 ;     N1 - H4          x - H     
     4      7   1 ;    1.3744e-01    2.8644e+05 ;     N2 - C2         NB - C     
     4      8   1 ;    1.3171e-01    3.4961e+05 ;     N2 - C3         NB - C*    
     5      6   1 ;    1.3730e-01    3.2321e+05 ;      C - C1         C* - C*    
     6      8   1 ;    1.4279e-01    2.6902e+05 ;     C1 - C3         C* - C*    
     6     10   1 ;    1.0835e-01    3.0510e+05 ;     C1 - H1         C* - HA    
     8     11   1 ;    1.0818e-01    3.0735e+05 ;     C3 - H2         C* - HA    

[ pairs ]
;   ai     aj    funct
     1      5      1 ;      O - C     
     1      8      1 ;      O - C3    
     1      9      1 ;      O - H     
     2      8      1 ;      N - C3    
     2     10      1 ;      N - H1    
     2     12      1 ;      N - H3    
     2     13      1 ;      N - H4    
     3      7      1 ;     N1 - C2    
     3      8      1 ;     N1 - C3    
     3      9      1 ;     N1 - H     
     3     10      1 ;     N1 - H1    
     4      5      1 ;     N2 - C     
     4      9      1 ;     N2 - H     
     4     10      1 ;     N2 - H1    
     5     11      1 ;      C - H2    
     6      7      1 ;     C1 - C2    
     6      9      1 ;     C1 - H     
     6     12      1 ;     C1 - H3    
     6     13      1 ;     C1 - H4    
     7     11      1 ;     C2 - H2    
    10     11      1 ;     H1 - H2    

[ angles ]
;   ai     aj     ak    funct   theta         cth
     1      7      2      1 ;    1.2305e+02    7.2977e+02 ;      O - C2   - N         O -    C - x   
     1      7      4      1 ;    1.2401e+02    7.2877e+02 ;      O - C2   - N2        O -    C - NB  
     2      5      3      1 ;    1.1707e+02    6.1856e+02 ;      N - C    - N1        x -   C* - x   
     2      5      6      1 ;    1.2145e+02    5.7120e+02 ;      N - C    - C1        x -   C* - C*  
     2      7      4      1 ;    1.1635e+02    6.1932e+02 ;      N - C2   - N2        x -    C - NB  
     3      5      6      1 ;    1.2647e+02    5.6216e+02 ;     N1 - C    - C1        x -   C* - C*  
     4      8      6      1 ;    1.2070e+02    5.7287e+02 ;     N2 - C3   - C1       NB -   C* - C*  
     4      8     11      1 ;    1.1814e+02    4.2133e+02 ;     N2 - C3   - H2       NB -   C* - HA  
     5      2      7      1 ;    1.2518e+02    6.5346e+02 ;      C - N    - C2       C* -    x - C   
     5      2      9      1 ;    1.1891e+02    4.7656e+02 ;      C - N    - H        C* -    x - H   
     5      3     12      1 ;    1.1650e+02    4.8526e+02 ;      C - N1   - H3       C* -    x - H   
     5      3     13      1 ;    1.1650e+02    4.8526e+02 ;      C - N1   - H4       C* -    x - H   
     5      6      8      1 ;    1.1621e+02    5.4032e+02 ;      C - C1   - C3       C* -   C* - C*  
     5      6     10      1 ;    1.2170e+02    3.7865e+02 ;      C - C1   - H1       C* -   C* - HA  
     6      8     11      1 ;    1.2675e+02    3.5949e+02 ;     C1 - C3   - H2       C* -   C* - HA  
     7      2      9      1 ;    1.1726e+02    4.8007e+02 ;     C2 - N    - H         C -    x - H   
     7      4      8      1 ;    1.2034e+02    6.8283e+02 ;     C2 - N2   - C3        C -   NB - C*  
     8      6     10      1 ;    1.2185e+02    3.6652e+02 ;     C3 - C1   - H1       C* -   C* - HA  
    12      3     13      1 ;    1.1528e+02    3.8794e+02 ;     H3 - N1   - H4        H -    x - H   

[ dihedrals ] ; propers
; for gromacs 4.5 or higher, using funct 9
;    i      j      k      l   func   phase     kd      pn
     1      7      2      5      9 ;   180.00  10.46000   2 ;      O-    C2-     N-     C
     1      7      2      9      9 ;     0.00   8.36800   1 ;      O-    C2-     N-     H
     1      7      2      9      9 ;   180.00  10.46000   2 ;      O-    C2-     N-     H
     1      7      4      8      9 ;   180.00  16.73600   2 ;      O-    C2-    N2-    C3
     2      5      3     12      9 ;   180.00   4.39320   2 ;      N-     C-    N1-    H3
     2      5      3     13      9 ;   180.00   4.39320   2 ;      N-     C-    N1-    H4
     2      5      6      8      9 ;   180.00  16.73600   2 ;      N-     C-    C1-    C3
     2      5      6     10      9 ;   180.00  16.73600   2 ;      N-     C-    C1-    H1
     2      7      4      8      9 ;   180.00  16.73600   2 ;      N-    C2-    N2-    C3
     3      5      2      7      9 ;   180.00   6.90360   2 ;     N1-     C-     N-    C2
     3      5      2      9      9 ;   180.00   6.90360   2 ;     N1-     C-     N-     H
     3      5      6      8      9 ;   180.00  16.73600   2 ;     N1-     C-    C1-    C3
     3      5      6     10      9 ;   180.00  16.73600   2 ;     N1-     C-    C1-    H1
     4      7      2      5      9 ;   180.00  10.46000   2 ;     N2-    C2-     N-     C
     4      7      2      9      9 ;   180.00  10.46000   2 ;     N2-    C2-     N-     H
     4      8      6      5      9 ;   180.00  16.73600   2 ;     N2-    C3-    C1-     C
     4      8      6     10      9 ;   180.00  16.73600   2 ;     N2-    C3-    C1-    H1
     5      6      8     11      9 ;   180.00  16.73600   2 ;      C-    C1-    C3-    H2
     6      5      2      7      9 ;   180.00   6.90360   2 ;     C1-     C-     N-    C2
     6      5      2      9      9 ;   180.00   6.90360   2 ;     C1-     C-     N-     H
     6      5      3     12      9 ;   180.00   4.39320   2 ;     C1-     C-    N1-    H3
     6      5      3     13      9 ;   180.00   4.39320   2 ;     C1-     C-    N1-    H4
     6      8      4      7      9 ;   180.00  19.87400   2 ;     C1-    C3-    N2-    C2
     7      4      8     11      9 ;   180.00  19.87400   2 ;     C2-    N2-    C3-    H2
    10      6      8     11      9 ;   180.00  16.73600   2 ;     H1-    C1-    C3-    H2

[ dihedrals ] ; impropers
; treated as propers in GROMACS to use correct AMBER analytical function
;    i      j      k      l   func   phase     kd      pn
     1      7      2      4      4 ;   180.00  43.93200   2 ;      O-    C2-     N-    N2
     5      8      6     10      4 ;   180.00   4.60240   2 ;      C-    C3-    C1-    H1
     5     12      3     13      4 ;   180.00   4.60240   2 ;      C-    H3-    N1-    H4
     6      2      5      3      4 ;   180.00   4.60240   2 ;     C1-     N-     C-    N1
     6     11      8      4      4 ;   180.00   4.60240   2 ;     C1-    H2-    C3-    N2
     7      5      2      9      4 ;   180.00   4.60240   2 ;     C2-     C-     N-     H
