; cytosine_GMX_OPLS.top created by acpype (v: 2023.10.27) on Mon Feb  9 17:39:42 2026

; Include forcefield parameters
#include "ffoplsaa.itp"

; Include cytosine_GMX.itp topology
#include "cytosine_GMX.itp"

; Ligand position restraints
#ifdef POSRES_LIG
#include "posre_cytosine.itp"
#endif

[ system ]
 cytosine

[ molecules ]
; Compound        nmols
 cytosine         1     
