597
    13
   2.2130000   1.1190000   0.0000000  -0.0590000   0.9820000   0.0000000
  -2.4420000   0.9210000   0.0000000   1.2940000  -0.9740000   0.0000000
  -1.2410000   0.2680000  -0.0000000  -1.1640000  -1.0730000  -0.0000000
   1.2090000   0.4060000  -0.0000000   0.1910000  -1.6480000   0.0000000
  -0.1330000   1.9950000   0.0000000  -2.0220000  -1.7320000  -0.0000000
   0.2350000  -2.7490000   0.0010000  -3.3090000   0.3980000   0.0000000
  -2.4530000   1.9330000   0.0010000
