%VERSION  VERSION_STAMP = V0001.000  DATE = 02/09/26  17:39:43                  
%FLAG TITLE                                                                     
%FORMAT(20a4)                                                                   
597                                                                             
%FLAG POINTERS                                                                  
%FORMAT(10I8)                                                                   
      13       8       5       8       9      10      19      12       0       0
      56       1       8      10      12      12      18       8      10       0
       0       0       0       0       0       0       0       0      13       0
       0
%FLAG ATOM_NAME                                                                 
%FORMAT(20a4)                                                                   
O   N   N1  N2  C   C1  C2  C3  H   H1  H2  H3  H4  
%FLAG CHARGE                                                                    
%FORMAT(5E16.8)                                                                 
 -1.10700473E+01 -9.04008303E+00 -1.57550006E+01 -1.18645395E+01  6.09718158E+00
 -8.92163808E+00  1.49769084E+01  1.03593775E+01  6.05891475E+00  2.82445650E+00
  6.52358340E-01  7.83194454E+00  7.83194454E+00
%FLAG ATOMIC_NUMBER                                                             
%FORMAT(10I8)                                                                   
       8       7       7       7       6       6       6       6       1       1
       1       1       1
%FLAG MASS                                                                      
%FORMAT(5E16.8)                                                                 
  1.60000000E+01  1.40100000E+01  1.40100000E+01  1.40100000E+01  1.20100000E+01
  1.20100000E+01  1.20100000E+01  1.20100000E+01  1.00800000E+00  1.00800000E+00
  1.00800000E+00  1.00800000E+00  1.00800000E+00
%FLAG ATOM_TYPE_INDEX                                                           
%FORMAT(10I8)                                                                   
       1       2       3       4       5       5       5       5       6       7
       8       6       6
%FLAG NUMBER_EXCLUDED_ATOMS                                                     
%FORMAT(10I8)                                                                   
       6      10       8       7       8       7       3       2       1       1
       1       1       1
%FLAG NONBONDED_PARM_INDEX                                                      
%FORMAT(10I8)                                                                   
       1       2       4       7      11      16      22      29       2       3
       5       8      12      17      23      30       4       5       6       9
      13      18      24      31       7       8       9      10      14      19
      25      32      11      12      13      14      15      20      26      33
      16      17      18      19      20      21      27      34      22      23
      24      25      26      27      28      35      29      30      31      32
      33      34      35      36
%FLAG RESIDUE_LABEL                                                             
%FORMAT(20a4)                                                                   
UNL 
%FLAG RESIDUE_POINTER                                                           
%FORMAT(10I8)                                                                   
       1
%FLAG BOND_FORCE_CONSTANT                                                       
%FORMAT(5E16.8)                                                                 
  5.90600000E+02  3.35390000E+02  3.36070000E+02  4.73590000E+02  3.49260000E+02
  4.77540000E+02  3.42300000E+02  4.17790000E+02  3.86240000E+02  3.21490000E+02
  3.64600000E+02  3.67290000E+02
%FLAG BOND_EQUIL_VALUE                                                          
%FORMAT(5E16.8)                                                                 
  1.21900000E+00  1.38040000E+00  1.37980000E+00  1.01320000E+00  1.36850000E+00
  1.01140000E+00  1.37440000E+00  1.31710000E+00  1.37300000E+00  1.42790000E+00
  1.08350000E+00  1.08180000E+00
%FLAG ANGLE_FORCE_CONSTANT                                                      
%FORMAT(5E16.8)                                                                 
  8.72100000E+01  8.70900000E+01  7.39200000E+01  6.82600000E+01  7.40100000E+01
  6.71800000E+01  6.84600000E+01  5.03500000E+01  7.80900000E+01  5.69500000E+01
  5.79900000E+01  6.45700000E+01  4.52500000E+01  4.29600000E+01  5.73700000E+01
  8.16000000E+01  4.38000000E+01  4.63600000E+01
%FLAG ANGLE_EQUIL_VALUE                                                         
%FORMAT(5E16.8)                                                                 
  2.14762857E+00  2.16438373E+00  2.04325783E+00  2.11970329E+00  2.03069145E+00
  2.20731885E+00  2.10661331E+00  2.06193286E+00  2.18480409E+00  2.07537190E+00
  2.03330945E+00  2.02824799E+00  2.12406661E+00  2.21220578E+00  2.04657396E+00
  2.10033012E+00  2.12668460E+00  2.01201642E+00
%FLAG DIHEDRAL_FORCE_CONSTANT                                                   
%FORMAT(5E16.8)                                                                 
  2.50000000E+00  2.00000000E+00  4.00000000E+00  1.05000000E+00  1.65000000E+00
  4.75000000E+00  1.10000000E+00  1.05000000E+01
%FLAG DIHEDRAL_PERIODICITY                                                      
%FORMAT(5E16.8)                                                                 
  2.00000000E+00  1.00000000E+00  2.00000000E+00  2.00000000E+00  2.00000000E+00
  2.00000000E+00  2.00000000E+00  2.00000000E+00
%FLAG DIHEDRAL_PHASE                                                            
%FORMAT(5E16.8)                                                                 
  3.14159400E+00  0.00000000E+00  3.14159400E+00  3.14159400E+00  3.14159400E+00
  3.14159400E+00  3.14159400E+00  3.14159400E+00
%FLAG SCEE_SCALE_FACTOR                                                         
%FORMAT(5E16.8)                                                                 
  1.20000000E+00  1.20000000E+00  1.20000000E+00  1.20000000E+00  1.20000000E+00
  1.20000000E+00  0.00000000E+00  0.00000000E+00
%FLAG SCNB_SCALE_FACTOR                                                         
%FORMAT(5E16.8)                                                                 
  2.00000000E+00  2.00000000E+00  2.00000000E+00  2.00000000E+00  2.00000000E+00
  2.00000000E+00  0.00000000E+00  0.00000000E+00
%FLAG SOLTY                                                                     
%FORMAT(5E16.8)                                                                 
  0.00000000E+00  0.00000000E+00  0.00000000E+00  0.00000000E+00  0.00000000E+00
  0.00000000E+00  0.00000000E+00  0.00000000E+00  0.00000000E+00  0.00000000E+00
%FLAG LENNARD_JONES_ACOEF                                                       
%FORMAT(5E16.8)                                                                 
  3.76435470E+05  5.17814271E+05  7.01825028E+05  6.08567325E+05  8.19705544E+05
  9.54875571E+05  5.74782316E+05  7.73425391E+05  9.00584118E+05  8.49322032E+05
  5.17507491E+05  6.99381362E+05  8.15855629E+05  7.69642101E+05  6.96551276E+05
  9.87857350E+02  1.65195713E+03  2.10567903E+03  2.01475241E+03  1.71458823E+03
  1.34728399E-01  5.27277400E+04  7.48403283E+04  8.91217989E+04  8.43518904E+04
  7.52549148E+04  9.04434904E+01  6.90855956E+03  4.36069364E+04  6.23418310E+04
  7.44624759E+04  7.05112106E+04  6.27751680E+04  6.76796831E+01  5.62610481E+03
  4.56536476E+03
%FLAG LENNARD_JONES_BCOEF                                                       
%FORMAT(5E16.8)                                                                 
  4.69350655E+02  5.21008860E+02  5.74088001E+02  5.58212938E+02  6.13169384E+02
  6.54052181E+02  5.19385932E+02  5.70234696E+02  6.08126668E+02  5.65406768E+02
  4.98871431E+02  5.48900066E+02  5.85909304E+02  5.44830041E+02  5.24668528E+02
  1.22938581E+01  1.50468782E+01  1.67892226E+01  1.57231024E+01  1.46824710E+01
  7.34107347E-02  1.01173582E+02  1.14083104E+02  1.23036209E+02  1.14599119E+02
  1.09570372E+02  2.14252117E+00  2.10929191E+01  9.20079458E+01  1.04122183E+02
  1.12463011E+02  1.04776275E+02  1.00073628E+02  1.85338491E+00  1.90347353E+01
  1.71467049E+01
%FLAG BONDS_INC_HYDROGEN                                                        
%FORMAT(10I8)                                                                   
       3      24       4       6      33       6       6      36       6      15
      27      11      21      30      12
%FLAG BONDS_WITHOUT_HYDROGEN                                                    
%FORMAT(10I8)                                                                   
       0      18       1       3      12       2       3      18       3       6
      12       5       9      18       7       9      21       8      12      15
       9      15      21      10
%FLAG ANGLES_INC_HYDROGEN                                                       
%FORMAT(10I8)                                                                   
       9      21      30       8      12       3      24      10      12       6
      33      11      12       6      36      11      12      15      27      13
      15      21      30      14      18       3      24      15      21      15
      27      17      33       6      36      18
%FLAG ANGLES_WITHOUT_HYDROGEN                                                   
%FORMAT(10I8)                                                                   
       0      18       3       1       0      18       9       2       3      12
       6       3       3      12      15       4       3      18       9       5
       6      12      15       6       9      21      15       7      12       3
      18       9      12      15      21      12      18       9      21      16
%FLAG DIHEDRALS_INC_HYDROGEN                                                    
%FORMAT(10I8)                                                                   
       0      18       3      24       2       0      18      -3      24       1
       3      12       6      33       4       3      12       6      36       4
       3      12      15      27       3       6      12       3      24       5
       6      12      15      27       3       9      18       3      24       1
       9      21      15      27       3      12      15      21      30       3
      15      12       3      24       5      15      12       6      33       4
      15      12       6      36       4      18       9      21      30       6
      27      15      21      30       3      18      12      -3     -24       7
      12      33      -6     -36       7      12      21     -15     -27       7
      15      30     -21      -9       7
%FLAG DIHEDRALS_WITHOUT_HYDROGEN                                                
%FORMAT(10I8)                                                                   
       0      18       3      12       1       0      18       9      21       3
       3      12      15      21       3       3      18      -9      21       3
       6      12       3      18       5       6      12      15      21       3
       9      18       3      12       1       9      21     -15      12       3
      15      12       3      18       5      15      21      -9      18       6
      15       3     -12      -6       7       0      18      -3      -9       8
%FLAG EXCLUDED_ATOMS_LIST                                                       
%FORMAT(10I8)                                                                   
       2       4       5       7       8       9       3       4       5       6
       7       8       9      10      12      13       5       6       7       8
       9      10      12      13       5       6       7       8       9      10
      11       6       7       8       9      10      11      12      13       7
       8       9      10      11      12      13       8       9      11      10
      11       0      11       0      13       0
%FLAG HBOND_ACOEF                                                               
%FORMAT(5E16.8)                                                                 

%FLAG HBOND_BCOEF                                                               
%FORMAT(5E16.8)                                                                 

%FLAG HBCUT                                                                     
%FORMAT(5E16.8)                                                                 

%FLAG AMBER_ATOM_TYPE                                                           
%FORMAT(20a4)                                                                   
o   ns  nv  nc  cc  cd  c   cd  hn  ha  h4  hn  hn  
%FLAG TREE_CHAIN_CLASSIFICATION                                                 
%FORMAT(20a4)                                                                   
BLA BLA BLA BLA BLA BLA BLA BLA BLA BLA BLA BLA BLA 
%FLAG JOIN_ARRAY                                                                
%FORMAT(10I8)                                                                   
       0       0       0       0       0       0       0       0       0       0
       0       0       0
%FLAG IROTAT                                                                    
%FORMAT(10I8)                                                                   
       0       0       0       0       0       0       0       0       0       0
       0       0       0
%FLAG RADIUS_SET                                                                
%FORMAT(1a80)                                                                   
modified Bondi radii (mbondi)                                                   
%FLAG RADII                                                                     
%FORMAT(5E16.8)                                                                 
  1.50000000E+00  1.55000000E+00  1.55000000E+00  1.55000000E+00  1.70000000E+00
  1.70000000E+00  1.70000000E+00  1.70000000E+00  1.30000000E+00  1.30000000E+00
  1.30000000E+00  1.30000000E+00  1.30000000E+00
%FLAG SCREEN                                                                    
%FORMAT(5E16.8)                                                                 
  8.50000000E-01  7.90000000E-01  7.90000000E-01  7.90000000E-01  7.20000000E-01
  7.20000000E-01  7.20000000E-01  7.20000000E-01  8.50000000E-01  8.50000000E-01
  8.50000000E-01  8.50000000E-01  8.50000000E-01
%FLAG IPOL                                                                      
%FORMAT(1I8)                                                                    
       0
