cytosine_GMX.gro created by acpype (v: 2023.10.27) on Mon Feb  9 17:39:42 2026
 13
    1  UNL    O    1   0.221   0.112   0.000
    1  UNL    N    2  -0.006   0.098   0.000
    1  UNL   N1    3  -0.244   0.092   0.000
    1  UNL   N2    4   0.129  -0.097   0.000
    1  UNL    C    5  -0.124   0.027  -0.000
    1  UNL   C1    6  -0.116  -0.107  -0.000
    1  UNL   C2    7   0.121   0.041  -0.000
    1  UNL   C3    8   0.019  -0.165   0.000
    1  UNL    H    9  -0.013   0.200   0.000
    1  UNL   H1   10  -0.202  -0.173  -0.000
    1  UNL   H2   11   0.024  -0.275   0.000
    1  UNL   H3   12  -0.331   0.040   0.000
    1  UNL   H4   13  -0.245   0.193   0.000
   11.04400     9.48800     0.00200
