; cytosine_GMX.top created by acpype (v: 2023.10.27) on Mon Feb  9 17:39:42 2026

[ defaults ]
; nbfunc        comb-rule       gen-pairs       fudgeLJ fudgeQQ
1               2               yes             0.5     0.8333333333

; Include cytosine_GMX.itp topology
#include "cytosine_GMX.itp"

; Ligand position restraints
#ifdef POSRES_LIG
#include "posre_cytosine.itp"
#endif

[ system ]
 cytosine

[ molecules ]
; Compound        nmols
 cytosine         1     
