%VERSION  VERSION_STAMP = V0001.000  DATE = 02/09/26  17:24:44                  
%FLAG TITLE                                                                     
%FORMAT(20a4)                                                                   
439423                                                                          
%FLAG POINTERS                                                                  
%FORMAT(10I8)                                                                   
      72       7      44      31     103      48     180      70       0       0
     467       1      31      48      70      17      35      14      10       0
       0       0       0       0       0       0       0       0      72       0
       0
%FLAG ATOM_NAME                                                                 
%FORMAT(20a4)                                                                   
O   C   C1  C2  C3  C4  C5  C6  C7  C8  C9  C10 C11 C12 C13 C14 C15 C16 C17 C18 
C19 C20 C21 C22 C23 C24 C25 C26 H   H1  H2  H3  H4  H5  H6  H7  H8  H9  H10 H11 
H12 H13 H14 H15 H16 H17 H18 H19 H20 H21 H22 H23 H24 H25 H26 H27 H28 H29 H30 H31 
H32 H33 H34 H35 H36 H37 H38 H39 H40 H41 H42 H43 
%FLAG CHARGE                                                                    
%FORMAT(5E16.8)                                                                 
 -1.09661801E+01 -7.65336600E-01 -6.10447050E-01 -9.78537510E-01 -2.82445650E-01
 -1.22818302E+00 -1.31929452E+00 -1.46507292E+00 -1.42862832E+00  5.83113600E-02
 -1.33751682E+00 -9.96759810E-01 -1.49605083E+00 -1.92063042E+00 -1.22818302E+00
 -2.66045580E+00 -1.56894003E+00 -1.39218372E+00 -2.40534360E+00 -6.96091860E-01
 -2.06640882E+00 -1.64182923E+00  2.64405573E+00 -1.46507292E+00 -1.33751682E+00
 -1.19720511E+00 -1.62360693E+00 -1.62360693E+00  9.96759810E-01  8.87426010E-01
  9.60315210E-01  7.68981060E-01  7.68981060E-01  8.14536810E-01  8.14536810E-01
  7.78092210E-01  7.78092210E-01  7.96314510E-01  7.96314510E-01  8.69203710E-01
  6.86980710E-01  6.86980710E-01  6.86980710E-01  7.96314510E-01  7.96314510E-01
  2.38712130E+00  7.17357284E-01  7.17357284E-01  7.17357284E-01  7.05203010E-01
  7.05203010E-01  2.33245440E+00  1.13342706E+00  1.13342706E+00  8.69203710E-01
  8.69203710E-01  6.20159536E-01  6.20159536E-01  6.20159536E-01  6.68758410E-01
  7.87203360E-01  7.87203360E-01  6.86980710E-01  6.86980710E-01  7.27069770E+00
  7.59869910E-01  5.98912334E-01  5.98912334E-01  5.98912334E-01  5.98912334E-01
  5.98912334E-01  5.98912334E-01
%FLAG ATOMIC_NUMBER                                                             
%FORMAT(10I8)                                                                   
       8       6       6       6       6       6       6       6       6       6
       6       6       6       6       6       6       6       6       6       6
       6       6       6       6       6       6       6       6       1       1
       1       1       1       1       1       1       1       1       1       1
       1       1       1       1       1       1       1       1       1       1
       1       1       1       1       1       1       1       1       1       1
       1       1       1       1       1       1       1       1       1       1
       1       1
%FLAG MASS                                                                      
%FORMAT(5E16.8)                                                                 
  1.60000000E+01  1.20100000E+01  1.20100000E+01  1.20100000E+01  1.20100000E+01
  1.20100000E+01  1.20100000E+01  1.20100000E+01  1.20100000E+01  1.20100000E+01
  1.20100000E+01  1.20100000E+01  1.20100000E+01  1.20100000E+01  1.20100000E+01
  1.20100000E+01  1.20100000E+01  1.20100000E+01  1.20100000E+01  1.20100000E+01
  1.20100000E+01  1.20100000E+01  1.20100000E+01  1.20100000E+01  1.20100000E+01
  1.20100000E+01  1.20100000E+01  1.20100000E+01  1.00800000E+00  1.00800000E+00
  1.00800000E+00  1.00800000E+00  1.00800000E+00  1.00800000E+00  1.00800000E+00
  1.00800000E+00  1.00800000E+00  1.00800000E+00  1.00800000E+00  1.00800000E+00
  1.00800000E+00  1.00800000E+00  1.00800000E+00  1.00800000E+00  1.00800000E+00
  1.00800000E+00  1.00800000E+00  1.00800000E+00  1.00800000E+00  1.00800000E+00
  1.00800000E+00  1.00800000E+00  1.00800000E+00  1.00800000E+00  1.00800000E+00
  1.00800000E+00  1.00800000E+00  1.00800000E+00  1.00800000E+00  1.00800000E+00
  1.00800000E+00  1.00800000E+00  1.00800000E+00  1.00800000E+00  1.00800000E+00
  1.00800000E+00  1.00800000E+00  1.00800000E+00  1.00800000E+00  1.00800000E+00
  1.00800000E+00  1.00800000E+00
%FLAG ATOM_TYPE_INDEX                                                           
%FORMAT(10I8)                                                                   
       1       2       2       2       2       2       2       3       2       2
       2       2       2       3       2       3       2       2       3       2
       2       2       2       2       2       2       2       2       4       4
       4       4       4       4       4       4       4       4       4       4
       4       4       4       4       4       5       4       4       4       4
       4       5       4       4       4       4       4       4       4       6
       4       4       4       4       7       4       4       4       4       4
       4       4
%FLAG NUMBER_EXCLUDED_ATOMS                                                     
%FORMAT(10I8)                                                                   
      11      27      25      27      24      17      11      17      11      22
      10      16       7      18      14       6       9      15       6       9
       9       8       8      12      16      13      10       9       2       3
       2       3       2       3       2       1       1       1       1       5
       2       1       1       3       2       1       2       1       1       3
       2       1       2       1       2       1       2       1       1       1
       3       2       2       1       1       6       2       1       1       2
       1       1
%FLAG NONBONDED_PARM_INDEX                                                      
%FORMAT(10I8)                                                                   
       1       2       4       7      11      16      22       2       3       5
       8      12      17      23       4       5       6       9      13      18
      24       7       8       9      10      14      19      25      11      12
      13      14      15      20      26      16      17      18      19      20
      21      27      22      23      24      25      26      27      28
%FLAG RESIDUE_LABEL                                                             
%FORMAT(20a4)                                                                   
UNL 
%FLAG RESIDUE_POINTER                                                           
%FORMAT(10I8)                                                                   
       1
%FLAG BOND_FORCE_CONSTANT                                                       
%FORMAT(5E16.8)                                                                 
  2.85250000E+02  5.35510000E+02  2.20100000E+02  2.26470000E+02  2.27640000E+02
  2.43380000E+02  3.46430000E+02  2.44960000E+02  2.26810000E+02  3.42750000E+02
  4.24300000E+02  2.23800000E+02  2.28890000E+02  3.45250000E+02  2.88330000E+02
  3.57590000E+02  3.42020000E+02
%FLAG BOND_EQUIL_VALUE                                                          
%FORMAT(5E16.8)                                                                 
  1.42410000E+00  9.72500000E-01  1.54830000E+00  1.53890000E+00  1.53720000E+00
  1.51540000E+00  1.09540000E+00  1.51330000E+00  1.53840000E+00  1.09790000E+00
  1.34570000E+00  1.54280000E+00  1.53540000E+00  1.09620000E+00  1.46150000E+00
  1.08800000E+00  1.09840000E+00
%FLAG ANGLE_FORCE_CONSTANT                                                      
%FORMAT(5E16.8)                                                                 
  7.65600000E+01  5.63900000E+01  6.18400000E+01  6.12900000E+01  4.26500000E+01
  5.93300000E+01  6.01700000E+01  4.32400000E+01  4.30600000E+01  5.92600000E+01
  5.90600000E+01  6.36800000E+01  5.95600000E+01  6.12000000E+01  6.05700000E+01
  6.01800000E+01  5.99900000E+01  4.32300000E+01  6.03300000E+01  4.35800000E+01
  4.39000000E+01  6.24000000E+01  4.62400000E+01  5.98700000E+01  4.28900000E+01
  4.36000000E+01  5.98700000E+01  4.32700000E+01  6.09300000E+01  4.38700000E+01
  4.32800000E+01  6.52300000E+01  3.59300000E+01  3.59100000E+01  3.58000000E+01
%FLAG ANGLE_EQUIL_VALUE                                                         
%FORMAT(5E16.8)                                                                 
  1.92073567E+00  1.91916487E+00  1.81217614E+00  1.88390920E+00  1.94028336E+00
  1.98269488E+00  1.93801443E+00  1.90834382E+00  1.92911325E+00  1.98531288E+00
  2.07711723E+00  1.97396823E+00  1.98444021E+00  2.14064725E+00  1.94447215E+00
  1.93836350E+00  1.94482122E+00  1.91026369E+00  1.92963685E+00  1.93242938E+00
  1.90782022E+00  2.15077016E+00  2.09439600E+00  2.02388467E+00  1.93085858E+00
  1.88129121E+00  1.96576518E+00  1.91427794E+00  1.91584874E+00  2.03540385E+00
  1.90555129E+00  1.86872483E+00  1.86087085E+00  1.87134283E+00  1.88024401E+00
%FLAG DIHEDRAL_FORCE_CONSTANT                                                   
%FORMAT(5E16.8)                                                                 
  1.55555556E-01  9.00000000E-02  1.80000000E-01  5.20000000E-01  1.30000000E-01
  0.00000000E+00  1.50000000E-01  6.65000000E+00  7.40000000E-01  1.00000000E+00
  6.00000000E-02  1.20000000E-01  1.23000000E-01  1.10000000E+00
%FLAG DIHEDRAL_PERIODICITY                                                      
%FORMAT(5E16.8)                                                                 
  3.00000000E+00  3.00000000E+00  3.00000000E+00  3.00000000E+00  3.00000000E+00
  2.00000000E+00  3.00000000E+00  2.00000000E+00  3.00000000E+00  2.00000000E+00
  3.00000000E+00  3.00000000E+00  3.00000000E+00  2.00000000E+00
%FLAG DIHEDRAL_PHASE                                                            
%FORMAT(5E16.8)                                                                 
  0.00000000E+00  0.00000000E+00  0.00000000E+00  0.00000000E+00  0.00000000E+00
  0.00000000E+00  0.00000000E+00  3.14159400E+00  0.00000000E+00  3.14159400E+00
  0.00000000E+00  0.00000000E+00  0.00000000E+00  3.14159400E+00
%FLAG SCEE_SCALE_FACTOR                                                         
%FORMAT(5E16.8)                                                                 
  1.20000000E+00  1.20000000E+00  1.20000000E+00  1.20000000E+00  1.20000000E+00
  1.20000000E+00  1.20000000E+00  1.20000000E+00  1.20000000E+00  1.20000000E+00
  1.20000000E+00  1.20000000E+00  1.20000000E+00  0.00000000E+00
%FLAG SCNB_SCALE_FACTOR                                                         
%FORMAT(5E16.8)                                                                 
  2.00000000E+00  2.00000000E+00  2.00000000E+00  2.00000000E+00  2.00000000E+00
  2.00000000E+00  2.00000000E+00  2.00000000E+00  2.00000000E+00  2.00000000E+00
  2.00000000E+00  2.00000000E+00  2.00000000E+00  0.00000000E+00
%FLAG SOLTY                                                                     
%FORMAT(5E16.8)                                                                 
  0.00000000E+00  0.00000000E+00  0.00000000E+00  0.00000000E+00  0.00000000E+00
  0.00000000E+00  0.00000000E+00  0.00000000E+00  0.00000000E+00  0.00000000E+00
%FLAG LENNARD_JONES_ACOEF                                                       
%FORMAT(5E16.8)                                                                 
  5.03152404E+05  7.18991463E+05  1.02073671E+06  5.92438683E+05  8.43969952E+05
  6.96551276E+05  6.80216136E+04  1.00235148E+05  8.12662403E+04  7.94617769E+03
  6.30298721E+04  9.27554496E+04  7.52549148E+04  7.41026906E+03  6.90855956E+03
  4.69084694E+04  6.97998263E+04  5.63013422E+04  5.22955465E+03  4.88692384E+03
  3.39005767E+03  1.74176419E+02  3.03553352E+02  2.25372434E+02  8.80612241E+00
  8.53132435E+00  4.36660257E+00  1.10360882E-05
%FLAG LENNARD_JONES_BCOEF                                                       
%FORMAT(5E16.8)                                                                 
  4.32634597E+02  5.36620538E+02  6.63431737E+02  4.76608379E+02  5.90251928E+02
  5.24668528E+02  1.09393126E+02  1.37787728E+02  1.21392023E+02  2.57122925E+01
  9.87712192E+01  1.24325688E+02  1.09570372E+02  2.32899892E+01  2.10929191E+01
  9.08431526E+01  1.14981426E+02  1.01040256E+02  2.08590256E+01  1.89134207E+01
  1.67944276E+01  3.81654050E+00  5.22789272E+00  4.40751799E+00  5.90150328E-01
  5.44840215E-01  4.15568027E-01  4.55498033E-04
%FLAG BONDS_INC_HYDROGEN                                                        
%FORMAT(10I8)                                                                   
       0     192       2       6      84       7       9      87       7      12
      90      10      15      93      10      15      96      10      18      99
       7      18     102       7      24     105       7      24     108       7
      30     111      10      30     114      10      33     117      14      36
     120      14      36     123      14      36     126      14      42     129
      10      42     132      10      45     135      16      48     138      14
      48     141      14      48     144      14      51     147      14      51
     150      14      54     153      16      57     156      10      57     159
      10      60     162      10      60     165      10      63     168      14
      63     171      14      63     174      14      66     177      17      69
     180      14      69     183      14      72     186      14      72     189
      14      75     195      14      78     198      14      78     201      14
      78     204      14      81     207      14      81     210      14      81
     213      14
%FLAG BONDS_WITHOUT_HYDROGEN                                                    
%FORMAT(10I8)                                                                   
       0      66       1       3       6       3       3       9       3       3
      15       4       3      36       5       6      18       3       6      21
       6       9      24       3       9      33       5      12      21       8
      12      27       9      12      30       9      15      30       9      18
      24       3      21      45      11      27      39       8      27      42
       9      27      48      12      33      51      13      33      63      13
      39      54      11      39      57       8      42      60       9      45
      54      15      51      69      13      57      66       9      60      66
       9      69      72      13      72      75      13      75      78      13
      75      81      13
%FLAG ANGLES_INC_HYDROGEN                                                       
%FORMAT(10I8)                                                                   
       0      66     177       2       3       6      84       5       3       9
      87       5       3      15      93       8       3      15      96       8
       3      36     120       9       3      36     123       9       3      36
     126       9       6      18      99       5       6      18     102       5
       9      24     105       5       9      24     108       5       9      33
     117       9      12      30     111      18      12      30     114      18
      15      30     111      18      15      30     114      18      18       6
      84       5      18      24     105       5      18      24     108       5
      21       6      84      20      21      12      90      21      21      45
     135      23      24       9      87       5      24      18      99       5
      24      18     102       5      27      12      90      18      27      42
     129      18      27      42     132      18      27      48     138      25
      27      48     141      25      27      48     144      25      30      12
      90      18      30      15      93      18      30      15      96      18
      33       9      87      26      33      51     147      28      33      51
     150      28      33      63     168      28      33      63     171      28
      33      63     174      28      39      54     153      23      39      57
     156      21      39      57     159      21      42      60     162      18
      42      60     165      18      45      54     153      30      51      33
     117      28      51      69     180      28      51      69     183      28
      54      45     135      30      57      66     177      31      60      42
     129      18      60      42     132      18      60      66     177      31
      63      33     117      28      66       0     192      32      66      57
     156      18      66      57     159      18      66      60     162      18
      66      60     165      18      69      51     147      28      69      51
     150      28      69      72     186      28      69      72     189      28
      72      69     180      28      72      69     183      28      72      75
     195      28      75      72     186      28      75      72     189      28
      75      78     198      28      75      78     201      28      75      78
     204      28      75      81     207      28      75      81     210      28
      75      81     213      28      78      75     195      28      81      75
     195      28      93      15      96      33      99      18     102      34
     105      24     108      34     111      30     114      33     120      36
     123      35     120      36     126      35     123      36     126      35
     129      42     132      33     138      48     141      35     138      48
     144      35     141      48     144      35     147      51     150      35
     156      57     159      33     162      60     165      33     168      63
     171      35     168      63     174      35     171      63     174      35
     180      69     183      35     186      72     189      35     198      78
     201      35     198      78     204      35     201      78     204      35
     207      81     210      35     207      81     213      35     210      81
     213      35
%FLAG ANGLES_WITHOUT_HYDROGEN                                                   
%FORMAT(10I8)                                                                   
       0      66      57       1       0      66      60       1       3       6
      18       3       3       6      21       4       3       9      24       3
       3       9      33       6       3      15      30       7       6       3
       9       3       6       3      15      10       6       3      36       6
       6      18      24       3       6      21      12      11       6      21
      45      12       9       3      15      10       9       3      36       6
       9      24      18       3       9      33      51      13       9      33
      63      13      12      21      45      14      12      27      39      15
      12      27      42      16      12      27      48      17      12      30
      15      16      15       3      36      19      18       6      21       4
      21      12      27      15      21      12      30      15      21      45
      54      22      24       9      33       6      27      12      30      16
      27      39      54      14      27      39      57      24      27      42
      60      16      33      51      69      27      39      27      42      15
      39      27      48      29      39      54      45      22      39      57
      66      15      42      27      48      17      42      60      66      16
      51      33      63      27      51      69      72      27      54      39
      57      14      57      66      60      16      69      72      75      27
      72      75      78      27      72      75      81      27      78      75
      81      27
%FLAG DIHEDRALS_INC_HYDROGEN                                                    
%FORMAT(10I8)                                                                   
       0      66      57     156       2       0      66      57     159       2
       0      66      60     162       2       0      66      60     165       2
       3       6      18      99       5       3       6      18     102       5
       3       9      24     105       5       3       9      24     108       5
       3       9      33     117       5       3      15      30     111       5
       3      15      30     114       5       6       3       9      87       5
       6       3      15      93       5       6       3      15      96       5
       6       3      36     120       5       6       3      36     123       5
       6       3      36     126       5       6      18      24     105       5
       6      18      24     108       5       6      21      12      90       7
       6      21      45     135       8       9       3       6      84       5
       9       3      15      93       5       9       3      15      96       5
       9       3      36     120       5       9       3      36     123       5
       9       3      36     126       5       9      24      18      99       5
       9      24      18     102       5       9      33      51     147       5
       9      33      51     150       5       9      33      63     168       5
       9      33      63     171       5       9      33      63     174       5
      12      21       6      84       7      12      21      45     135       8
      12      27      42     129       5      12      27      42     132       5
      12      27      48     138       5      12      27      48     141       5
      12      27      48     144       5      12      30      15      93       5
      12      30      15      96       5      15       3       6      84       5
      15       3       9      87       5      15       3      36     120       5
      15       3      36     123       5      15       3      36     126       5
      15      30      12      90       5      18      24       9      87       5
      21       6      18      99       1      21       6      18     102       1
      21      12      30     111       1      21      12      30     114       1
      21      45      54     153      10      24       9      33     117       5
      24      18       6      84       5      27      12      30     111       5
      27      12      30     114       5      27      39      54     153       8
      27      39      57     156       7      27      39      57     159       7
      27      42      60     162       5      27      42      60     165       5
      33       9      24     105       5      33       9      24     108       5
      33      51      69     180       5      33      51      69     183       5
      36       3       6      84       5      36       3       9      87       5
      36       3      15      93       5      36       3      15      96       5
      39      27      12      90       1      39      27      42     129       1
      39      27      42     132       1      39      27      48     138       1
      39      27      48     141       1      39      27      48     144       1
      39      54      45     135      10      39      57      66     177       1
      42      27      12      90       5      42      27      48     138       5
      42      27      48     141       5      42      27      48     144       5
      42      60      66     177       1      45      21       6      84       6
      45      21      12      90       6      48      27      12      90       5
      48      27      42     129       5      48      27      42     132       5
      51      33       9      87       5      51      33      63     168       5
      51      33      63     171       5      51      33      63     174       5
      51      69      72     186       5      51      69      72     189       5
      54      39      57     156       6      54      39      57     159       6
      57      39      54     153       8     192       0      66      57      11
      57      66      60     162       5      57      66      60     165       5
     192       0      66      60      11      60      66      57     156       5
      60      66      57     159       5      63      33       9      87       5
      63      33      51     147       5      63      33      51     150       5
      66      60      42     129       5      66      60      42     132       5
      69      51      33     117       5      69      72      75     195       5
      72      69      51     147       5      72      69      51     150       5
      72      75      78     198       5      72      75      78     201       5
      72      75      78     204       5      72      75      81     207       5
      72      75      81     210       5      72      75      81     213       5
      75      72      69     180       5      75      72      69     183       5
      78      75      72     186       5      78      75      72     189       5
      78      75      81     207       5      78      75      81     210       5
      78      75      81     213       5      81      75      72     186       5
      81      75      72     189       5      81      75      78     198       5
      81      75      78     201       5      81      75      78     204       5
      84       6      18      99      12      84       6      18     102      12
      87       9      24     105      12      87       9      24     108      12
      87       9      33     117      12      90      12      30     111      12
      90      12      30     114      12      93      15      30     111      12
      93      15      30     114      12      96      15      30     111      12
      96      15      30     114      12      99      18      24     105      12
      99      18      24     108      12     102      18      24     105      12
     102      18      24     108      12     117      33      51     147      12
     117      33      51     150      12     117      33      63     168      12
     117      33      63     171      12     117      33      63     174      12
     129      42      60     162      12     129      42      60     165      12
     132      42      60     162      12     132      42      60     165      12
     135      45      54     153      10     147      51      69     180      12
     147      51      69     183      12     150      51      69     180      12
     150      51      69     183      12     156      57      66     177       1
     159      57      66     177       1     162      60      66     177       1
     165      60      66     177       1     192       0      66     177      13
     180      69      72     186      12     180      69      72     189      12
     183      69      72     186      12     183      69      72     189      12
     186      72      75     195      12     189      72      75     195      12
     195      75      78     198      12     195      75      78     201      12
     195      75      78     204      12     195      75      81     207      12
     195      75      81     210      12     195      75      81     213      12
      21      54     -45    -135      14      39      45     -54    -153      14
%FLAG DIHEDRALS_WITHOUT_HYDROGEN                                                
%FORMAT(10I8)                                                                   
       0      66      57      39       1       0      66      60      42       3
       3       6     -18      24       4       3       6      21      12       6
       3       6      21      45       6       3       9     -24      18       4
       3       9      33      51       4       3       9      33      63       4
       3      15     -30      12       4       6       3      -9      24       4
       6       3       9      33       4       6       3      15      30       4
       6      18     -24       9       4       6      21      12      27       6
       6      21     -12      30       6       6      21      45      54       8
       9       3      -6      18       4       9       3       6      21       1
       9       3      15      30       4       9      33      51      69       4
      12      21       6      18       6      12      21      45      54       8
      12      27     -39      54       6      12      27      39      57       6
      12      27      42      60       4      15       3       6      18       4
      15       3       6      21       1      15       3       9      24       4
      15       3       9      33       4      15      30     -12      21       1
      15      30      12      27       4      18       6       3      36       4
      18       6      21      45       6      18      24       9      33       4
      21       6       3      36       1      21       6      18      24       1
      21      12      27      39       1      21      12      27      42       1
      21      12      27      48       1      21      45     -54      39       9
      24       9       3      36       4      24       9      33      51       4
      24       9      33      63       4      27      12      21      45       6
      27      39     -54      45       8      27      39      57      66       6
      27      42     -60      66       4      30      12      21      45       6
      30      12      27      39       1      30      12      27      42       4
      30      12      27      48       4      30      15       3      36       4
      33       9       3      36       4      33      51      69      72       4
      39      27      42      60       1      39      57     -66      60       1
      42      27      39      54       6      42      27      39      57       6
      42      60     -66      57       4      45      54      39      57       8
      48      27      39      54       6      48      27      39      57       6
      48      27      42      60       4      51      69      72      75       4
      54      39      57      66       6      63      33      51      69       4
      69      72      75      78       4      69      72      75      81       4
       6      12     -21     -45      14      27      57     -39     -54      14
%FLAG EXCLUDED_ATOMS_LIST                                                       
%FORMAT(10I8)                                                                   
      14      15      20      21      23      53      54      55      56      60
      65       3       4       5       6       7       8       9      11      12
      13      16      18      22      29      30      32      33      34      35
      36      37      38      39      40      41      42      43       4       5
       6       7       8       9      10      11      12      13      16      19
      29      30      31      32      33      34      35      36      37      41
      42      43      46       6       7       8       9      11      12      13
      18      22      24      29      30      32      33      34      35      36
      37      40      41      42      43      50      51      57      58      59
       6       7       8      10      11      14      15      16      17      19
      20      21      29      31      32      33      38      39      44      45
      46      47      48      49       7       8       9      10      11      12
      13      29      30      31      32      33      38      39      41      42
      43       8       9      12      13      16      29      30      34      35
      36      37       9      10      11      13      14      15      16      17
      19      29      31      34      35      38      39      46      52      12
      13      18      22      29      30      34      35      36      37      40
      11      14      15      16      17      19      20      21      23      31
      38      39      44      45      47      48      49      52      53      54
      55      56      13      14      15      16      17      31      32      33
      38      39      13      18      22      24      25      30      36      37
      40      50      51      57      58      59      61      62      29      30
      32      33      41      42      43      15      16      17      19      20
      21      23      31      44      45      46      47      48      49      52
      53      54      60      17      19      20      21      23      31      44
      45      47      48      49      55      56      60      19      20      29
      31      46      52      19      20      21      31      44      45      47
      48      49      22      24      25      26      30      40      50      51
      57      58      59      61      62      63      64      20      23      46
      52      53      54      21      23      52      53      54      55      56
      60      65      23      44      45      53      54      55      56      60
      65      24      30      40      50      51      57      58      59      44
      45      53      54      55      56      60      65      25      26      27
      28      40      50      51      61      62      63      64      66      26
      27      28      50      51      61      62      63      64      66      67
      68      69      70      71      72      27      28      61      62      63
      64      66      67      68      69      70      71      72      28      63
      64      66      67      68      69      70      71      72      63      64
      66      67      68      69      70      71      72      34      35      36
      37      40      38      39      33      38      39      38      39      35
      36      37      36      37      37       0      39       0      50      51
      57      58      59      42      43      43       0      45      55      56
      55      56      52      48      49      49       0      51      61      62
      61      62       0      54      60      60      56      60      60      58
      59      59       0      65      62      63      64      63      64      64
      66      66       0      67      68      69      70      71      72      68
      69      69       0      71      72      72       0
%FLAG HBOND_ACOEF                                                               
%FORMAT(5E16.8)                                                                 

%FLAG HBOND_BCOEF                                                               
%FORMAT(5E16.8)                                                                 

%FLAG HBCUT                                                                     
%FORMAT(5E16.8)                                                                 

%FLAG AMBER_ATOM_TYPE                                                           
%FORMAT(20a4)                                                                   
oh  c5  c5  c5  c6  c6  c5  c2  c5  c6  c6  c3  c3  c2  c6  ce  c3  c3  ce  c6  
c6  c3  c6  c3  c3  c3  c3  c3  hc  hc  hc  hc  hc  hc  hc  hc  hc  hc  hc  hc  
hc  hc  hc  hc  hc  ha  hc  hc  hc  hc  hc  ha  hc  hc  hc  hc  hc  hc  hc  h1  
hc  hc  hc  hc  ho  hc  hc  hc  hc  hc  hc  hc  
%FLAG TREE_CHAIN_CLASSIFICATION                                                 
%FORMAT(20a4)                                                                   
BLA BLA BLA BLA BLA BLA BLA BLA BLA BLA BLA BLA BLA BLA BLA BLA BLA BLA BLA BLA 
BLA BLA BLA BLA BLA BLA BLA BLA BLA BLA BLA BLA BLA BLA BLA BLA BLA BLA BLA BLA 
BLA BLA BLA BLA BLA BLA BLA BLA BLA BLA BLA BLA BLA BLA BLA BLA BLA BLA BLA BLA 
BLA BLA BLA BLA BLA BLA BLA BLA BLA BLA BLA BLA 
%FLAG JOIN_ARRAY                                                                
%FORMAT(10I8)                                                                   
       0       0       0       0       0       0       0       0       0       0
       0       0       0       0       0       0       0       0       0       0
       0       0       0       0       0       0       0       0       0       0
       0       0       0       0       0       0       0       0       0       0
       0       0       0       0       0       0       0       0       0       0
       0       0       0       0       0       0       0       0       0       0
       0       0       0       0       0       0       0       0       0       0
       0       0
%FLAG IROTAT                                                                    
%FORMAT(10I8)                                                                   
       0       0       0       0       0       0       0       0       0       0
       0       0       0       0       0       0       0       0       0       0
       0       0       0       0       0       0       0       0       0       0
       0       0       0       0       0       0       0       0       0       0
       0       0       0       0       0       0       0       0       0       0
       0       0       0       0       0       0       0       0       0       0
       0       0       0       0       0       0       0       0       0       0
       0       0
%FLAG RADIUS_SET                                                                
%FORMAT(1a80)                                                                   
modified Bondi radii (mbondi)                                                   
%FLAG RADII                                                                     
%FORMAT(5E16.8)                                                                 
  1.50000000E+00  1.70000000E+00  1.70000000E+00  1.70000000E+00  1.50000000E+00
  1.50000000E+00  1.70000000E+00  1.70000000E+00  1.70000000E+00  1.50000000E+00
  1.50000000E+00  1.70000000E+00  1.70000000E+00  1.70000000E+00  1.50000000E+00
  1.70000000E+00  1.70000000E+00  1.70000000E+00  1.70000000E+00  1.50000000E+00
  1.50000000E+00  1.70000000E+00  1.50000000E+00  1.70000000E+00  1.70000000E+00
  1.70000000E+00  1.70000000E+00  1.70000000E+00  1.30000000E+00  1.30000000E+00
  1.30000000E+00  1.30000000E+00  1.30000000E+00  1.30000000E+00  1.30000000E+00
  1.30000000E+00  1.30000000E+00  1.30000000E+00  1.30000000E+00  1.30000000E+00
  1.30000000E+00  1.30000000E+00  1.30000000E+00  1.30000000E+00  1.30000000E+00
  1.30000000E+00  1.30000000E+00  1.30000000E+00  1.30000000E+00  1.30000000E+00
  1.30000000E+00  1.30000000E+00  1.30000000E+00  1.30000000E+00  1.30000000E+00
  1.30000000E+00  1.30000000E+00  1.30000000E+00  1.30000000E+00  1.30000000E+00
  1.30000000E+00  1.30000000E+00  1.30000000E+00  1.30000000E+00  8.00000000E-01
  1.30000000E+00  1.30000000E+00  1.30000000E+00  1.30000000E+00  1.30000000E+00
  1.30000000E+00  1.30000000E+00
%FLAG SCREEN                                                                    
%FORMAT(5E16.8)                                                                 
  8.50000000E-01  7.20000000E-01  7.20000000E-01  7.20000000E-01  8.00000000E-01
  8.00000000E-01  7.20000000E-01  7.20000000E-01  7.20000000E-01  8.00000000E-01
  8.00000000E-01  7.20000000E-01  7.20000000E-01  7.20000000E-01  8.00000000E-01
  7.20000000E-01  7.20000000E-01  7.20000000E-01  7.20000000E-01  8.00000000E-01
  8.00000000E-01  7.20000000E-01  8.00000000E-01  7.20000000E-01  7.20000000E-01
  7.20000000E-01  7.20000000E-01  7.20000000E-01  8.50000000E-01  8.50000000E-01
  8.50000000E-01  8.50000000E-01  8.50000000E-01  8.50000000E-01  8.50000000E-01
  8.50000000E-01  8.50000000E-01  8.50000000E-01  8.50000000E-01  8.50000000E-01
  8.50000000E-01  8.50000000E-01  8.50000000E-01  8.50000000E-01  8.50000000E-01
  8.50000000E-01  8.50000000E-01  8.50000000E-01  8.50000000E-01  8.50000000E-01
  8.50000000E-01  8.50000000E-01  8.50000000E-01  8.50000000E-01  8.50000000E-01
  8.50000000E-01  8.50000000E-01  8.50000000E-01  8.50000000E-01  8.50000000E-01
  8.50000000E-01  8.50000000E-01  8.50000000E-01  8.50000000E-01  8.50000000E-01
  8.50000000E-01  8.50000000E-01  8.50000000E-01  8.50000000E-01  8.50000000E-01
  8.50000000E-01  8.50000000E-01
%FLAG IPOL                                                                      
%FORMAT(1I8)                                                                    
       0
