7-dehydrocholesterol_GMX.gro created by acpype (v: 2023.10.27) on Mon Feb  9 17:23:55 2026
 72
    1  UNL    O    1   0.759  -0.129  -0.063
    1  UNL    C    2  -0.080   0.071   0.063
    1  UNL   C1    3  -0.013   0.073  -0.076
    1  UNL   C2    4  -0.229   0.076   0.020
    1  UNL   C3    5   0.195  -0.044   0.019
    1  UNL   C4    6  -0.040  -0.060   0.132
    1  UNL   C5    7  -0.086   0.186  -0.149
    1  UNL   C6    8   0.138   0.068  -0.068
    1  UNL   C7    9  -0.231   0.178  -0.096
    1  UNL   C8   10   0.352  -0.033   0.046
    1  UNL   C9   11   0.113  -0.069   0.149
    1  UNL  C10   12  -0.330   0.109   0.129
    1  UNL  C11   13  -0.043   0.193   0.151
    1  UNL  C12   14   0.425   0.040  -0.068
    1  UNL  C13   15   0.407  -0.178   0.060
    1  UNL  C14   16   0.218   0.145  -0.144
    1  UNL  C15   17   0.383   0.047   0.175
    1  UNL  C16   18  -0.475   0.109   0.078
    1  UNL  C17   19   0.359   0.122  -0.152
    1  UNL  C18   20   0.574   0.022  -0.079
    1  UNL  C19   21   0.559  -0.188   0.059
    1  UNL  C20   22  -0.317   0.008   0.244
    1  UNL  C21   23   0.617  -0.124  -0.068
    1  UNL  C22   24  -0.524  -0.021   0.012
    1  UNL  C23   25  -0.666  -0.013  -0.044
    1  UNL  C24   26  -0.717  -0.145  -0.103
    1  UNL  C25   27  -0.714  -0.260  -0.002
    1  UNL  C26   28  -0.634  -0.182  -0.226
    1  UNL    H   29  -0.041  -0.020  -0.129
    1  UNL   H1   30  -0.253  -0.022  -0.023
    1  UNL   H2   31   0.178  -0.134  -0.043
    1  UNL   H3   32  -0.074  -0.146   0.074
    1  UNL   H4   33  -0.082  -0.071   0.232
    1  UNL   H5   34  -0.083   0.172  -0.258
    1  UNL   H6   35  -0.043   0.284  -0.127
    1  UNL   H7   36  -0.263   0.278  -0.064
    1  UNL   H8   37  -0.299   0.145  -0.175
    1  UNL   H9   38   0.141   0.004   0.227
    1  UNL  H10   39   0.138  -0.168   0.190
    1  UNL  H11   40  -0.311   0.209   0.170
    1  UNL  H12   41   0.066   0.207   0.158
    1  UNL  H13   42  -0.084   0.287   0.112
    1  UNL  H14   43  -0.079   0.182   0.253
    1  UNL  H15   44   0.370  -0.240  -0.022
    1  UNL  H16   45   0.370  -0.224   0.152
    1  UNL  H17   46   0.177   0.221  -0.210
    1  UNL  H18   47   0.490   0.068   0.186
    1  UNL  H19   48   0.331   0.144   0.175
    1  UNL  H20   49   0.353  -0.008   0.265
    1  UNL  H21   50  -0.543   0.134   0.161
    1  UNL  H22   51  -0.487   0.191   0.005
    1  UNL  H23   52   0.412   0.175  -0.230
    1  UNL  H24   53   0.612   0.062  -0.174
    1  UNL  H25   54   0.624   0.082  -0.002
    1  UNL  H26   55   0.602  -0.141   0.148
    1  UNL  H27   56   0.590  -0.293   0.064
    1  UNL  H28   57  -0.307  -0.095   0.209
    1  UNL  H29   58  -0.407   0.011   0.307
    1  UNL  H30   59  -0.235   0.034   0.311
    1  UNL  H31   60   0.584  -0.179  -0.156
    1  UNL  H32   61  -0.456  -0.048  -0.070
    1  UNL  H33   62  -0.517  -0.101   0.087
    1  UNL  H34   63  -0.671   0.066  -0.120
    1  UNL  H35   64  -0.734   0.018   0.037
    1  UNL  H36   65   0.784  -0.223  -0.056
    1  UNL  H37   66  -0.821  -0.130  -0.135
    1  UNL  H38   67  -0.612  -0.291   0.023
    1  UNL  H39   68  -0.765  -0.348  -0.042
    1  UNL  H40   69  -0.764  -0.232   0.091
    1  UNL  H41   70  -0.532  -0.211  -0.200
    1  UNL  H42   71  -0.679  -0.268  -0.277
    1  UNL  H43   72  -0.630  -0.100  -0.297
   32.11000    12.68600    12.16600
