; 7-dehydrocholesterol_GMX.top created by acpype (v: 2023.10.27) on Mon Feb  9 17:23:55 2026

[ defaults ]
; nbfunc        comb-rule       gen-pairs       fudgeLJ fudgeQQ
1               2               yes             0.5     0.8333333333

; Include 7-dehydrocholesterol_GMX.itp topology
#include "7-dehydrocholesterol_GMX.itp"

; Ligand position restraints
#ifdef POSRES_LIG
#include "posre_7-dehydrocholesterol.itp"
#endif

[ system ]
 7-dehydrocholesterol

[ molecules ]
; Compound        nmols
 7-dehydrocholesterol 1     
