; 7-dehydrocholesterol_GMX.itp created by acpype (v: 2023.10.27) on Mon Feb  9 17:23:55 2026

[ atomtypes ]
;name   bond_type     mass     charge   ptype   sigma         epsilon       Amb
 oh       oh          0.00000  0.00000   A     3.24287e-01   3.89112e-01 ; 1.82  0.0930
 c5       c5          0.00000  0.00000   A     3.39771e-01   4.51035e-01 ; 1.91  0.1078
 c6       c6          0.00000  0.00000   A     3.39771e-01   4.51035e-01 ; 1.91  0.1078
 c2       c2          0.00000  0.00000   A     3.31521e-01   4.13379e-01 ; 1.86  0.0988
 c3       c3          0.00000  0.00000   A     3.39771e-01   4.51035e-01 ; 1.91  0.1078
 ce       ce          0.00000  0.00000   A     3.31521e-01   4.13379e-01 ; 1.86  0.0988
 hc       hc          0.00000  0.00000   A     2.60018e-01   8.70272e-02 ; 1.46  0.0208
 ha       ha          0.00000  0.00000   A     2.62548e-01   6.73624e-02 ; 1.47  0.0161
 h1       h1          0.00000  0.00000   A     2.42200e-01   8.70272e-02 ; 1.36  0.0208
 ho       ho          0.00000  0.00000   A     5.37925e-02   1.96648e-02 ; 0.30  0.0047

[ moleculetype ]
;name            nrexcl
 7-dehydrocholesterol 3

[ atoms ]
;   nr  type  resi  res  atom  cgnr     charge      mass       ; qtot   bond_type
     1   oh     1   UNL     O    1    -0.605802     16.00000 ; qtot -0.606
     2   c5     1   UNL     C    2    -0.042000     12.01000 ; qtot -0.648
     3   c5     1   UNL    C1    3    -0.033500     12.01000 ; qtot -0.681
     4   c5     1   UNL    C2    4    -0.053700     12.01000 ; qtot -0.735
     5   c6     1   UNL    C3    5    -0.015500     12.01000 ; qtot -0.751
     6   c6     1   UNL    C4    6    -0.067400     12.01000 ; qtot -0.818
     7   c5     1   UNL    C5    7    -0.072400     12.01000 ; qtot -0.890
     8   c2     1   UNL    C6    8    -0.080400     12.01000 ; qtot -0.971
     9   c5     1   UNL    C7    9    -0.078400     12.01000 ; qtot -1.049
    10   c6     1   UNL    C8   10     0.003200     12.01000 ; qtot -1.046
    11   c6     1   UNL    C9   11    -0.073400     12.01000 ; qtot -1.119
    12   c3     1   UNL   C10   12    -0.054700     12.01000 ; qtot -1.174
    13   c3     1   UNL   C11   13    -0.082100     12.01000 ; qtot -1.256
    14   c2     1   UNL   C12   14    -0.105400     12.01000 ; qtot -1.362
    15   c6     1   UNL   C13   15    -0.067400     12.01000 ; qtot -1.429
    16   ce     1   UNL   C14   16    -0.146000     12.01000 ; qtot -1.575
    17   c3     1   UNL   C15   17    -0.086100     12.01000 ; qtot -1.661
    18   c3     1   UNL   C16   18    -0.076400     12.01000 ; qtot -1.737
    19   ce     1   UNL   C17   19    -0.132000     12.01000 ; qtot -1.869
    20   c6     1   UNL   C18   20    -0.038200     12.01000 ; qtot -1.908
    21   c6     1   UNL   C19   21    -0.113400     12.01000 ; qtot -2.021
    22   c3     1   UNL   C20   22    -0.090100     12.01000 ; qtot -2.111
    23   c6     1   UNL   C21   23     0.145100     12.01000 ; qtot -1.966
    24   c3     1   UNL   C22   24    -0.080400     12.01000 ; qtot -2.046
    25   c3     1   UNL   C23   25    -0.073400     12.01000 ; qtot -2.120
    26   c3     1   UNL   C24   26    -0.065700     12.01000 ; qtot -2.186
    27   c3     1   UNL   C25   27    -0.089100     12.01000 ; qtot -2.275
    28   c3     1   UNL   C26   28    -0.089100     12.01000 ; qtot -2.364
    29   hc     1   UNL     H   29     0.054700      1.00800 ; qtot -2.309
    30   hc     1   UNL    H1   30     0.048700      1.00800 ; qtot -2.260
    31   hc     1   UNL    H2   31     0.052700      1.00800 ; qtot -2.208
    32   hc     1   UNL    H3   32     0.042200      1.00800 ; qtot -2.165
    33   hc     1   UNL    H4   33     0.042200      1.00800 ; qtot -2.123
    34   hc     1   UNL    H5   34     0.044700      1.00800 ; qtot -2.079
    35   hc     1   UNL    H6   35     0.044700      1.00800 ; qtot -2.034
    36   hc     1   UNL    H7   36     0.042700      1.00800 ; qtot -1.991
    37   hc     1   UNL    H8   37     0.042700      1.00800 ; qtot -1.948
    38   hc     1   UNL    H9   38     0.043700      1.00800 ; qtot -1.905
    39   hc     1   UNL   H10   39     0.043700      1.00800 ; qtot -1.861
    40   hc     1   UNL   H11   40     0.047700      1.00800 ; qtot -1.813
    41   hc     1   UNL   H12   41     0.037700      1.00800 ; qtot -1.776
    42   hc     1   UNL   H13   42     0.037700      1.00800 ; qtot -1.738
    43   hc     1   UNL   H14   43     0.037700      1.00800 ; qtot -1.700
    44   hc     1   UNL   H15   44     0.043700      1.00800 ; qtot -1.657
    45   hc     1   UNL   H16   45     0.043700      1.00800 ; qtot -1.613
    46   ha     1   UNL   H17   46     0.131000      1.00800 ; qtot -1.482
    47   hc     1   UNL   H18   47     0.039367      1.00800 ; qtot -1.442
    48   hc     1   UNL   H19   48     0.039367      1.00800 ; qtot -1.403
    49   hc     1   UNL   H20   49     0.039367      1.00800 ; qtot -1.364
    50   hc     1   UNL   H21   50     0.038700      1.00800 ; qtot -1.325
    51   hc     1   UNL   H22   51     0.038700      1.00800 ; qtot -1.286
    52   ha     1   UNL   H23   52     0.128000      1.00800 ; qtot -1.158
    53   hc     1   UNL   H24   53     0.062200      1.00800 ; qtot -1.096
    54   hc     1   UNL   H25   54     0.062200      1.00800 ; qtot -1.034
    55   hc     1   UNL   H26   55     0.047700      1.00800 ; qtot -0.986
    56   hc     1   UNL   H27   56     0.047700      1.00800 ; qtot -0.939
    57   hc     1   UNL   H28   57     0.034033      1.00800 ; qtot -0.904
    58   hc     1   UNL   H29   58     0.034033      1.00800 ; qtot -0.870
    59   hc     1   UNL   H30   59     0.034033      1.00800 ; qtot -0.836
    60   h1     1   UNL   H31   60     0.036700      1.00800 ; qtot -0.800
    61   hc     1   UNL   H32   61     0.043200      1.00800 ; qtot -0.757
    62   hc     1   UNL   H33   62     0.043200      1.00800 ; qtot -0.713
    63   hc     1   UNL   H34   63     0.037700      1.00800 ; qtot -0.676
    64   hc     1   UNL   H35   64     0.037700      1.00800 ; qtot -0.638
    65   ho     1   UNL   H36   65     0.399000      1.00800 ; qtot -0.239
    66   hc     1   UNL   H37   66     0.041700      1.00800 ; qtot -0.197
    67   hc     1   UNL   H38   67     0.032867      1.00800 ; qtot -0.164
    68   hc     1   UNL   H39   68     0.032867      1.00800 ; qtot -0.131
    69   hc     1   UNL   H40   69     0.032867      1.00800 ; qtot -0.099
    70   hc     1   UNL   H41   70     0.032867      1.00800 ; qtot -0.066
    71   hc     1   UNL   H42   71     0.032867      1.00800 ; qtot -0.033
    72   hc     1   UNL   H43   72     0.032867      1.00800 ; qtot 0.000

[ bonds ]
;   ai     aj funct   r             k
     1     23   1    1.4241e-01    2.3870e+05 ;      O - C21   
     1     65   1    9.7250e-02    4.4811e+05 ;      O - H36   
     2      3   1    1.5483e-01    1.8418e+05 ;      C - C1    
     2      4   1    1.5483e-01    1.8418e+05 ;      C - C2    
     2      6   1    1.5389e-01    1.8951e+05 ;      C - C4    
     2     13   1    1.5372e-01    1.9049e+05 ;      C - C11   
     3      7   1    1.5483e-01    1.8418e+05 ;     C1 - C5    
     3      8   1    1.5154e-01    2.0366e+05 ;     C1 - C6    
     3     29   1    1.0954e-01    2.8989e+05 ;     C1 - H     
     4      9   1    1.5483e-01    1.8418e+05 ;     C2 - C7    
     4     12   1    1.5372e-01    1.9049e+05 ;     C2 - C10   
     4     30   1    1.0954e-01    2.8989e+05 ;     C2 - H1    
     5      8   1    1.5133e-01    2.0498e+05 ;     C3 - C6    
     5     10   1    1.5384e-01    1.8979e+05 ;     C3 - C8    
     5     11   1    1.5384e-01    1.8979e+05 ;     C3 - C9    
     5     31   1    1.0979e-01    2.8681e+05 ;     C3 - H2    
     6     11   1    1.5384e-01    1.8979e+05 ;     C4 - C9    
     6     32   1    1.0979e-01    2.8681e+05 ;     C4 - H3    
     6     33   1    1.0979e-01    2.8681e+05 ;     C4 - H4    
     7      9   1    1.5483e-01    1.8418e+05 ;     C5 - C7    
     7     34   1    1.0954e-01    2.8989e+05 ;     C5 - H5    
     7     35   1    1.0954e-01    2.8989e+05 ;     C5 - H6    
     8     16   1    1.3457e-01    3.5505e+05 ;     C6 - C14   
     9     36   1    1.0954e-01    2.8989e+05 ;     C7 - H7    
     9     37   1    1.0954e-01    2.8989e+05 ;     C7 - H8    
    10     14   1    1.5133e-01    2.0498e+05 ;     C8 - C12   
    10     15   1    1.5384e-01    1.8979e+05 ;     C8 - C13   
    10     17   1    1.5428e-01    1.8728e+05 ;     C8 - C15   
    11     38   1    1.0979e-01    2.8681e+05 ;     C9 - H9    
    11     39   1    1.0979e-01    2.8681e+05 ;     C9 - H10   
    12     18   1    1.5354e-01    1.9154e+05 ;    C10 - C16   
    12     22   1    1.5354e-01    1.9154e+05 ;    C10 - C20   
    12     40   1    1.0962e-01    2.8891e+05 ;    C10 - H11   
    13     41   1    1.0962e-01    2.8891e+05 ;    C11 - H12   
    13     42   1    1.0962e-01    2.8891e+05 ;    C11 - H13   
    13     43   1    1.0962e-01    2.8891e+05 ;    C11 - H14   
    14     19   1    1.3457e-01    3.5505e+05 ;    C12 - C17   
    14     20   1    1.5133e-01    2.0498e+05 ;    C12 - C18   
    15     21   1    1.5384e-01    1.8979e+05 ;    C13 - C19   
    15     44   1    1.0979e-01    2.8681e+05 ;    C13 - H15   
    15     45   1    1.0979e-01    2.8681e+05 ;    C13 - H16   
    16     19   1    1.4615e-01    2.4127e+05 ;    C14 - C17   
    16     46   1    1.0880e-01    2.9923e+05 ;    C14 - H17   
    17     47   1    1.0962e-01    2.8891e+05 ;    C15 - H18   
    17     48   1    1.0962e-01    2.8891e+05 ;    C15 - H19   
    17     49   1    1.0962e-01    2.8891e+05 ;    C15 - H20   
    18     24   1    1.5354e-01    1.9154e+05 ;    C16 - C22   
    18     50   1    1.0962e-01    2.8891e+05 ;    C16 - H21   
    18     51   1    1.0962e-01    2.8891e+05 ;    C16 - H22   
    19     52   1    1.0880e-01    2.9923e+05 ;    C17 - H23   
    20     23   1    1.5384e-01    1.8979e+05 ;    C18 - C21   
    20     53   1    1.0979e-01    2.8681e+05 ;    C18 - H24   
    20     54   1    1.0979e-01    2.8681e+05 ;    C18 - H25   
    21     23   1    1.5384e-01    1.8979e+05 ;    C19 - C21   
    21     55   1    1.0979e-01    2.8681e+05 ;    C19 - H26   
    21     56   1    1.0979e-01    2.8681e+05 ;    C19 - H27   
    22     57   1    1.0962e-01    2.8891e+05 ;    C20 - H28   
    22     58   1    1.0962e-01    2.8891e+05 ;    C20 - H29   
    22     59   1    1.0962e-01    2.8891e+05 ;    C20 - H30   
    23     60   1    1.0984e-01    2.8620e+05 ;    C21 - H31   
    24     25   1    1.5354e-01    1.9154e+05 ;    C22 - C23   
    24     61   1    1.0962e-01    2.8891e+05 ;    C22 - H32   
    24     62   1    1.0962e-01    2.8891e+05 ;    C22 - H33   
    25     26   1    1.5354e-01    1.9154e+05 ;    C23 - C24   
    25     63   1    1.0962e-01    2.8891e+05 ;    C23 - H34   
    25     64   1    1.0962e-01    2.8891e+05 ;    C23 - H35   
    26     27   1    1.5354e-01    1.9154e+05 ;    C24 - C25   
    26     28   1    1.5354e-01    1.9154e+05 ;    C24 - C26   
    26     66   1    1.0962e-01    2.8891e+05 ;    C24 - H37   
    27     67   1    1.0962e-01    2.8891e+05 ;    C25 - H38   
    27     68   1    1.0962e-01    2.8891e+05 ;    C25 - H39   
    27     69   1    1.0962e-01    2.8891e+05 ;    C25 - H40   
    28     70   1    1.0962e-01    2.8891e+05 ;    C26 - H41   
    28     71   1    1.0962e-01    2.8891e+05 ;    C26 - H42   
    28     72   1    1.0962e-01    2.8891e+05 ;    C26 - H43   

[ pairs ]
;   ai     aj    funct
     1     14      1 ;      O - C12   
     1     15      1 ;      O - C13   
     1     53      1 ;      O - H24   
     1     54      1 ;      O - H25   
     1     55      1 ;      O - H26   
     1     56      1 ;      O - H27   
     2      5      1 ;      C - C3    
     2     16      1 ;      C - C14   
     2     18      1 ;      C - C16   
     2     22      1 ;      C - C20   
     2     34      1 ;      C - H5    
     2     35      1 ;      C - H6    
     2     36      1 ;      C - H7    
     2     37      1 ;      C - H8    
     2     38      1 ;      C - H9    
     2     39      1 ;      C - H10   
     2     40      1 ;      C - H11   
     3     10      1 ;     C1 - C8    
     3     11      1 ;     C1 - C9    
     3     12      1 ;     C1 - C10   
     3     19      1 ;     C1 - C17   
     3     30      1 ;     C1 - H1    
     3     31      1 ;     C1 - H2    
     3     32      1 ;     C1 - H3    
     3     33      1 ;     C1 - H4    
     3     36      1 ;     C1 - H7    
     3     37      1 ;     C1 - H8    
     3     41      1 ;     C1 - H12   
     3     42      1 ;     C1 - H13   
     3     43      1 ;     C1 - H14   
     3     46      1 ;     C1 - H17   
     4      8      1 ;     C2 - C6    
     4     11      1 ;     C2 - C9    
     4     24      1 ;     C2 - C22   
     4     29      1 ;     C2 - H     
     4     32      1 ;     C2 - H3    
     4     33      1 ;     C2 - H4    
     4     34      1 ;     C2 - H5    
     4     35      1 ;     C2 - H6    
     4     41      1 ;     C2 - H12   
     4     42      1 ;     C2 - H13   
     4     43      1 ;     C2 - H14   
     4     50      1 ;     C2 - H21   
     4     51      1 ;     C2 - H22   
     4     57      1 ;     C2 - H28   
     4     58      1 ;     C2 - H29   
     4     59      1 ;     C2 - H30   
     5      7      1 ;     C3 - C5    
     5     19      1 ;     C3 - C17   
     5     20      1 ;     C3 - C18   
     5     21      1 ;     C3 - C19   
     5     29      1 ;     C3 - H     
     5     32      1 ;     C3 - H3    
     5     33      1 ;     C3 - H4    
     5     44      1 ;     C3 - H15   
     5     45      1 ;     C3 - H16   
     5     46      1 ;     C3 - H17   
     5     47      1 ;     C3 - H18   
     5     48      1 ;     C3 - H19   
     5     49      1 ;     C3 - H20   
     6      7      1 ;     C4 - C5    
     6      8      1 ;     C4 - C6    
     6      9      1 ;     C4 - C7    
     6     10      1 ;     C4 - C8    
     6     12      1 ;     C4 - C10   
     6     29      1 ;     C4 - H     
     6     30      1 ;     C4 - H1    
     6     31      1 ;     C4 - H2    
     6     41      1 ;     C4 - H12   
     6     42      1 ;     C4 - H13   
     6     43      1 ;     C4 - H14   
     7     12      1 ;     C5 - C10   
     7     13      1 ;     C5 - C11   
     7     16      1 ;     C5 - C14   
     7     30      1 ;     C5 - H1    
     8      9      1 ;     C6 - C7    
     8     13      1 ;     C6 - C11   
     8     14      1 ;     C6 - C12   
     8     15      1 ;     C6 - C13   
     8     17      1 ;     C6 - C15   
     8     34      1 ;     C6 - H5    
     8     35      1 ;     C6 - H6    
     8     38      1 ;     C6 - H9    
     8     39      1 ;     C6 - H10   
     8     52      1 ;     C6 - H23   
     9     13      1 ;     C7 - C11   
     9     18      1 ;     C7 - C16   
     9     22      1 ;     C7 - C20   
     9     29      1 ;     C7 - H     
     9     40      1 ;     C7 - H11   
    10     16      1 ;     C8 - C14   
    10     23      1 ;     C8 - C21   
    10     38      1 ;     C8 - H9    
    10     39      1 ;     C8 - H10   
    10     52      1 ;     C8 - H23   
    10     53      1 ;     C8 - H24   
    10     54      1 ;     C8 - H25   
    10     55      1 ;     C8 - H26   
    10     56      1 ;     C8 - H27   
    11     13      1 ;     C9 - C11   
    11     14      1 ;     C9 - C12   
    11     15      1 ;     C9 - C13   
    11     16      1 ;     C9 - C14   
    11     17      1 ;     C9 - C15   
    12     13      1 ;    C10 - C11   
    12     25      1 ;    C10 - C23   
    12     36      1 ;    C10 - H7    
    12     37      1 ;    C10 - H8    
    12     61      1 ;    C10 - H32   
    12     62      1 ;    C10 - H33   
    13     29      1 ;    C11 - H     
    13     30      1 ;    C11 - H1    
    13     32      1 ;    C11 - H3    
    13     33      1 ;    C11 - H4    
    14     21      1 ;    C12 - C19   
    14     31      1 ;    C12 - H2    
    14     44      1 ;    C12 - H15   
    14     45      1 ;    C12 - H16   
    14     46      1 ;    C12 - H17   
    14     47      1 ;    C12 - H18   
    14     48      1 ;    C12 - H19   
    14     49      1 ;    C12 - H20   
    14     60      1 ;    C12 - H31   
    15     19      1 ;    C13 - C17   
    15     20      1 ;    C13 - C18   
    15     31      1 ;    C13 - H2    
    15     47      1 ;    C13 - H18   
    15     48      1 ;    C13 - H19   
    15     49      1 ;    C13 - H20   
    15     60      1 ;    C13 - H31   
    16     20      1 ;    C14 - C18   
    16     29      1 ;    C14 - H     
    16     31      1 ;    C14 - H2    
    17     19      1 ;    C15 - C17   
    17     20      1 ;    C15 - C18   
    17     21      1 ;    C15 - C19   
    17     31      1 ;    C15 - H2    
    17     44      1 ;    C15 - H15   
    17     45      1 ;    C15 - H16   
    18     26      1 ;    C16 - C24   
    18     30      1 ;    C16 - H1    
    18     57      1 ;    C16 - H28   
    18     58      1 ;    C16 - H29   
    18     59      1 ;    C16 - H30   
    18     63      1 ;    C16 - H34   
    18     64      1 ;    C16 - H35   
    19     23      1 ;    C17 - C21   
    19     53      1 ;    C17 - H24   
    19     54      1 ;    C17 - H25   
    20     52      1 ;    C18 - H23   
    20     55      1 ;    C18 - H26   
    20     56      1 ;    C18 - H27   
    21     53      1 ;    C19 - H24   
    21     54      1 ;    C19 - H25   
    22     24      1 ;    C20 - C22   
    22     30      1 ;    C20 - H1    
    22     50      1 ;    C20 - H21   
    22     51      1 ;    C20 - H22   
    23     44      1 ;    C21 - H15   
    23     45      1 ;    C21 - H16   
    24     27      1 ;    C22 - C25   
    24     28      1 ;    C22 - C26   
    24     40      1 ;    C22 - H11   
    24     66      1 ;    C22 - H37   
    25     50      1 ;    C23 - H21   
    25     51      1 ;    C23 - H22   
    25     67      1 ;    C23 - H38   
    25     68      1 ;    C23 - H39   
    25     69      1 ;    C23 - H40   
    25     70      1 ;    C23 - H41   
    25     71      1 ;    C23 - H42   
    25     72      1 ;    C23 - H43   
    26     61      1 ;    C24 - H32   
    26     62      1 ;    C24 - H33   
    27     63      1 ;    C25 - H34   
    27     64      1 ;    C25 - H35   
    27     70      1 ;    C25 - H41   
    27     71      1 ;    C25 - H42   
    27     72      1 ;    C25 - H43   
    28     63      1 ;    C26 - H34   
    28     64      1 ;    C26 - H35   
    28     67      1 ;    C26 - H38   
    28     68      1 ;    C26 - H39   
    28     69      1 ;    C26 - H40   
    29     34      1 ;      H - H5    
    29     35      1 ;      H - H6    
    30     36      1 ;     H1 - H7    
    30     37      1 ;     H1 - H8    
    30     40      1 ;     H1 - H11   
    31     38      1 ;     H2 - H9    
    31     39      1 ;     H2 - H10   
    32     38      1 ;     H3 - H9    
    32     39      1 ;     H3 - H10   
    33     38      1 ;     H4 - H9    
    33     39      1 ;     H4 - H10   
    34     36      1 ;     H5 - H7    
    34     37      1 ;     H5 - H8    
    35     36      1 ;     H6 - H7    
    35     37      1 ;     H6 - H8    
    40     50      1 ;    H11 - H21   
    40     51      1 ;    H11 - H22   
    40     57      1 ;    H11 - H28   
    40     58      1 ;    H11 - H29   
    40     59      1 ;    H11 - H30   
    44     55      1 ;    H15 - H26   
    44     56      1 ;    H15 - H27   
    45     55      1 ;    H16 - H26   
    45     56      1 ;    H16 - H27   
    46     52      1 ;    H17 - H23   
    50     61      1 ;    H21 - H32   
    50     62      1 ;    H21 - H33   
    51     61      1 ;    H22 - H32   
    51     62      1 ;    H22 - H33   
    53     60      1 ;    H24 - H31   
    54     60      1 ;    H25 - H31   
    55     60      1 ;    H26 - H31   
    56     60      1 ;    H27 - H31   
    61     63      1 ;    H32 - H34   
    61     64      1 ;    H32 - H35   
    62     63      1 ;    H33 - H34   
    62     64      1 ;    H33 - H35   
    63     66      1 ;    H34 - H37   
    64     66      1 ;    H35 - H37   
    65     20      1 ;    H36 - C18   
    65     21      1 ;    H36 - C19   
    65     60      1 ;    H36 - H31   
    66     67      1 ;    H37 - H38   
    66     68      1 ;    H37 - H39   
    66     69      1 ;    H37 - H40   
    66     70      1 ;    H37 - H41   
    66     71      1 ;    H37 - H42   
    66     72      1 ;    H37 - H43   

[ angles ]
;   ai     aj     ak    funct   theta         cth
     1     23     20      1    1.1005e+02    6.4065e+02 ;      O - C21    - C18   
     1     23     21      1    1.1005e+02    6.4065e+02 ;      O - C21    - C19   
     1     23     60      1    1.0996e+02    4.7187e+02 ;      O - C21    - H31   
     2      3      7      1    1.0383e+02    5.1748e+02 ;      C - C1     - C5    
     2      3      8      1    1.0794e+02    5.1287e+02 ;      C - C1     - C6    
     2      3     29      1    1.1117e+02    3.5690e+02 ;      C - C1     - H     
     2      4      9      1    1.0383e+02    5.1748e+02 ;      C - C2     - C7    
     2      4     12      1    1.1360e+02    4.9647e+02 ;      C - C2     - C10   
     2      4     30      1    1.1117e+02    3.5690e+02 ;      C - C2     - H1    
     2      6     11      1    1.1104e+02    5.0350e+02 ;      C - C4     - C9    
     2      6     32      1    1.0934e+02    3.6183e+02 ;      C - C4     - H3    
     2      6     33      1    1.0934e+02    3.6183e+02 ;      C - C4     - H4    
     2     13     41      1    1.1053e+02    3.6033e+02 ;      C - C11    - H12   
     2     13     42      1    1.1053e+02    3.6033e+02 ;      C - C11    - H13   
     2     13     43      1    1.1053e+02    3.6033e+02 ;      C - C11    - H14   
     3      2      4      1    1.0383e+02    5.1748e+02 ;     C1 - C      - C2    
     3      2      6      1    1.1375e+02    4.9589e+02 ;     C1 - C      - C4    
     3      2     13      1    1.1360e+02    4.9647e+02 ;     C1 - C      - C11   
     3      7      9      1    1.0383e+02    5.1748e+02 ;     C1 - C5     - C7    
     3      7     34      1    1.1117e+02    3.5690e+02 ;     C1 - C5     - H5    
     3      7     35      1    1.1117e+02    3.5690e+02 ;     C1 - C5     - H6    
     3      8      5      1    1.1901e+02    4.9421e+02 ;     C1 - C6     - C3    
     3      8     16      1    1.1310e+02    5.3287e+02 ;     C1 - C6     - C14   
     4      2      6      1    1.1375e+02    4.9589e+02 ;     C2 - C      - C4    
     4      2     13      1    1.1360e+02    4.9647e+02 ;     C2 - C      - C11   
     4      9      7      1    1.0383e+02    5.1748e+02 ;     C2 - C7     - C5    
     4      9     36      1    1.1117e+02    3.5690e+02 ;     C2 - C7     - H7    
     4      9     37      1    1.1117e+02    3.5690e+02 ;     C2 - C7     - H8    
     4     12     18      1    1.1370e+02    4.9840e+02 ;     C2 - C10    - C16   
     4     12     22      1    1.1370e+02    4.9840e+02 ;     C2 - C10    - C20   
     4     12     40      1    1.1053e+02    3.6033e+02 ;     C2 - C10    - H11   
     5      8     16      1    1.2265e+02    5.1212e+02 ;     C3 - C6     - C14   
     5     10     14      1    1.1141e+02    5.0685e+02 ;     C3 - C8     - C12   
     5     10     15      1    1.1106e+02    5.0359e+02 ;     C3 - C8     - C13   
     5     10     17      1    1.1143e+02    5.0200e+02 ;     C3 - C8     - C15   
     5     11      6      1    1.1106e+02    5.0359e+02 ;     C3 - C9     - C4    
     5     11     38      1    1.0945e+02    3.6175e+02 ;     C3 - C9     - H9    
     5     11     39      1    1.0945e+02    3.6175e+02 ;     C3 - C9     - H10   
     6      2     13      1    1.1056e+02    5.0484e+02 ;     C4 - C      - C11   
     6     11     38      1    1.0945e+02    3.6175e+02 ;     C4 - C9     - H9    
     6     11     39      1    1.0945e+02    3.6175e+02 ;     C4 - C9     - H10   
     7      3      8      1    1.0794e+02    5.1287e+02 ;     C5 - C1     - C6    
     7      3     29      1    1.1117e+02    3.5690e+02 ;     C5 - C1     - H     
     7      9     36      1    1.1117e+02    3.5690e+02 ;     C5 - C7     - H7    
     7      9     37      1    1.1117e+02    3.5690e+02 ;     C5 - C7     - H8    
     8      3     29      1    1.1072e+02    3.6468e+02 ;     C6 - C1     - H     
     8      5     10      1    1.1141e+02    5.0685e+02 ;     C6 - C3     - C8    
     8      5     11      1    1.1141e+02    5.0685e+02 ;     C6 - C3     - C9    
     8      5     31      1    1.0931e+02    3.6736e+02 ;     C6 - C3     - H2    
     8     16     19      1    1.2323e+02    5.2216e+02 ;     C6 - C14    - C17   
     8     16     46      1    1.2000e+02    3.8694e+02 ;     C6 - C14    - H17   
     9      4     12      1    1.1360e+02    4.9647e+02 ;     C7 - C2     - C10   
     9      4     30      1    1.1117e+02    3.5690e+02 ;     C7 - C2     - H1    
     9      7     34      1    1.1117e+02    3.5690e+02 ;     C7 - C5     - H5    
     9      7     35      1    1.1117e+02    3.5690e+02 ;     C7 - C5     - H6    
    10      5     11      1    1.1106e+02    5.0359e+02 ;     C8 - C3     - C9    
    10      5     31      1    1.0945e+02    3.6175e+02 ;     C8 - C3     - H2    
    10     14     19      1    1.2265e+02    5.1212e+02 ;     C8 - C12    - C17   
    10     14     20      1    1.1596e+02    5.0099e+02 ;     C8 - C12    - C18   
    10     15     21      1    1.1106e+02    5.0359e+02 ;     C8 - C13    - C19   
    10     15     44      1    1.0945e+02    3.6175e+02 ;     C8 - C13    - H15   
    10     15     45      1    1.0945e+02    3.6175e+02 ;     C8 - C13    - H16   
    10     17     47      1    1.1063e+02    3.5890e+02 ;     C8 - C15    - H18   
    10     17     48      1    1.1063e+02    3.5890e+02 ;     C8 - C15    - H19   
    10     17     49      1    1.1063e+02    3.5890e+02 ;     C8 - C15    - H20   
    11      5     31      1    1.0945e+02    3.6175e+02 ;     C9 - C3     - H2    
    11      6     32      1    1.0945e+02    3.6175e+02 ;     C9 - C4     - H3    
    11      6     33      1    1.0945e+02    3.6175e+02 ;     C9 - C4     - H4    
    12      4     30      1    1.0779e+02    3.6484e+02 ;    C10 - C2     - H1    
    12     18     24      1    1.1263e+02    5.0099e+02 ;    C10 - C16    - C22   
    12     18     50      1    1.0968e+02    3.6208e+02 ;    C10 - C16    - H21   
    12     18     51      1    1.0968e+02    3.6208e+02 ;    C10 - C16    - H22   
    12     22     57      1    1.0968e+02    3.6208e+02 ;    C10 - C20    - H28   
    12     22     58      1    1.0968e+02    3.6208e+02 ;    C10 - C20    - H29   
    12     22     59      1    1.0968e+02    3.6208e+02 ;    C10 - C20    - H30   
    14     10     15      1    1.1141e+02    5.0685e+02 ;    C12 - C8     - C13   
    14     10     17      1    1.0977e+02    5.0986e+02 ;    C12 - C8     - C15   
    14     19     16      1    1.2323e+02    5.2216e+02 ;    C12 - C17    - C14   
    14     19     52      1    1.2000e+02    3.8694e+02 ;    C12 - C17    - H23   
    14     20     23      1    1.1141e+02    5.0685e+02 ;    C12 - C18    - C21   
    14     20     53      1    1.0931e+02    3.6736e+02 ;    C12 - C18    - H24   
    14     20     54      1    1.0931e+02    3.6736e+02 ;    C12 - C18    - H25   
    15     10     17      1    1.1143e+02    5.0200e+02 ;    C13 - C8     - C15   
    15     21     23      1    1.1106e+02    5.0359e+02 ;    C13 - C19    - C21   
    15     21     55      1    1.0945e+02    3.6175e+02 ;    C13 - C19    - H26   
    15     21     56      1    1.0945e+02    3.6175e+02 ;    C13 - C19    - H27   
    16     19     52      1    1.1662e+02    3.6710e+02 ;    C14 - C17    - H23   
    18     12     22      1    1.1263e+02    5.0099e+02 ;    C16 - C10    - C20   
    18     12     40      1    1.0968e+02    3.6208e+02 ;    C16 - C10    - H11   
    18     24     25      1    1.1263e+02    5.0099e+02 ;    C16 - C22    - C23   
    18     24     61      1    1.0968e+02    3.6208e+02 ;    C16 - C22    - H32   
    18     24     62      1    1.0968e+02    3.6208e+02 ;    C16 - C22    - H33   
    19     14     20      1    1.2265e+02    5.1212e+02 ;    C17 - C12    - C18   
    19     16     46      1    1.1662e+02    3.6710e+02 ;    C17 - C14    - H17   
    20     23     21      1    1.1106e+02    5.0359e+02 ;    C18 - C21    - C19   
    20     23     60      1    1.0918e+02    3.6217e+02 ;    C18 - C21    - H31   
    21     15     44      1    1.0945e+02    3.6175e+02 ;    C19 - C13    - H15   
    21     15     45      1    1.0945e+02    3.6175e+02 ;    C19 - C13    - H16   
    21     23     60      1    1.0918e+02    3.6217e+02 ;    C19 - C21    - H31   
    22     12     40      1    1.0968e+02    3.6208e+02 ;    C20 - C10    - H11   
    23      1     65      1    1.0707e+02    5.4584e+02 ;    C21 - O      - H36   
    23     20     53      1    1.0945e+02    3.6175e+02 ;    C21 - C18    - H24   
    23     20     54      1    1.0945e+02    3.6175e+02 ;    C21 - C18    - H25   
    23     21     55      1    1.0945e+02    3.6175e+02 ;    C21 - C19    - H26   
    23     21     56      1    1.0945e+02    3.6175e+02 ;    C21 - C19    - H27   
    24     18     50      1    1.0968e+02    3.6208e+02 ;    C22 - C16    - H21   
    24     18     51      1    1.0968e+02    3.6208e+02 ;    C22 - C16    - H22   
    24     25     26      1    1.1263e+02    5.0099e+02 ;    C22 - C23    - C24   
    24     25     63      1    1.0968e+02    3.6208e+02 ;    C22 - C23    - H34   
    24     25     64      1    1.0968e+02    3.6208e+02 ;    C22 - C23    - H35   
    25     24     61      1    1.0968e+02    3.6208e+02 ;    C23 - C22    - H32   
    25     24     62      1    1.0968e+02    3.6208e+02 ;    C23 - C22    - H33   
    25     26     27      1    1.1263e+02    5.0099e+02 ;    C23 - C24    - C25   
    25     26     28      1    1.1263e+02    5.0099e+02 ;    C23 - C24    - C26   
    25     26     66      1    1.0968e+02    3.6208e+02 ;    C23 - C24    - H37   
    26     25     63      1    1.0968e+02    3.6208e+02 ;    C24 - C23    - H34   
    26     25     64      1    1.0968e+02    3.6208e+02 ;    C24 - C23    - H35   
    26     27     67      1    1.0968e+02    3.6208e+02 ;    C24 - C25    - H38   
    26     27     68      1    1.0968e+02    3.6208e+02 ;    C24 - C25    - H39   
    26     27     69      1    1.0968e+02    3.6208e+02 ;    C24 - C25    - H40   
    26     28     70      1    1.0968e+02    3.6208e+02 ;    C24 - C26    - H41   
    26     28     71      1    1.0968e+02    3.6208e+02 ;    C24 - C26    - H42   
    26     28     72      1    1.0968e+02    3.6208e+02 ;    C24 - C26    - H43   
    27     26     28      1    1.1263e+02    5.0099e+02 ;    C25 - C24    - C26   
    27     26     66      1    1.0968e+02    3.6208e+02 ;    C25 - C24    - H37   
    28     26     66      1    1.0968e+02    3.6208e+02 ;    C26 - C24    - H37   
    32      6     33      1    1.0662e+02    3.0066e+02 ;     H3 - C4     - H4    
    34      7     35      1    1.0722e+02    3.0049e+02 ;     H5 - C5     - H6    
    36      9     37      1    1.0722e+02    3.0049e+02 ;     H7 - C7     - H8    
    38     11     39      1    1.0662e+02    3.0066e+02 ;     H9 - C9     - H10   
    41     13     42      1    1.0773e+02    2.9957e+02 ;    H12 - C11    - H13   
    41     13     43      1    1.0773e+02    2.9957e+02 ;    H12 - C11    - H14   
    42     13     43      1    1.0773e+02    2.9957e+02 ;    H13 - C11    - H14   
    44     15     45      1    1.0662e+02    3.0066e+02 ;    H15 - C13    - H16   
    47     17     48      1    1.0773e+02    2.9957e+02 ;    H18 - C15    - H19   
    47     17     49      1    1.0773e+02    2.9957e+02 ;    H18 - C15    - H20   
    48     17     49      1    1.0773e+02    2.9957e+02 ;    H19 - C15    - H20   
    50     18     51      1    1.0773e+02    2.9957e+02 ;    H21 - C16    - H22   
    53     20     54      1    1.0662e+02    3.0066e+02 ;    H24 - C18    - H25   
    55     21     56      1    1.0662e+02    3.0066e+02 ;    H26 - C19    - H27   
    57     22     58      1    1.0773e+02    2.9957e+02 ;    H28 - C20    - H29   
    57     22     59      1    1.0773e+02    2.9957e+02 ;    H28 - C20    - H30   
    58     22     59      1    1.0773e+02    2.9957e+02 ;    H29 - C20    - H30   
    61     24     62      1    1.0773e+02    2.9957e+02 ;    H32 - C22    - H33   
    63     25     64      1    1.0773e+02    2.9957e+02 ;    H34 - C23    - H35   
    67     27     68      1    1.0773e+02    2.9957e+02 ;    H38 - C25    - H39   
    67     27     69      1    1.0773e+02    2.9957e+02 ;    H38 - C25    - H40   
    68     27     69      1    1.0773e+02    2.9957e+02 ;    H39 - C25    - H40   
    70     28     71      1    1.0773e+02    2.9957e+02 ;    H41 - C26    - H42   
    70     28     72      1    1.0773e+02    2.9957e+02 ;    H41 - C26    - H43   
    71     28     72      1    1.0773e+02    2.9957e+02 ;    H42 - C26    - H43   

[ dihedrals ] ; propers
; for gromacs 4.5 or higher, using funct 9
;    i      j      k      l   func   phase     kd      pn
     1     23     20     14      9     0.00   0.65084   3 ;      O-   C21-   C18-   C12
     1     23     20     53      9     0.00   0.37656   3 ;      O-   C21-   C18-   H24
     1     23     20     54      9     0.00   0.37656   3 ;      O-   C21-   C18-   H25
     1     23     21     15      9     0.00   0.75312   3 ;      O-   C21-   C19-   C13
     1     23     21     55      9     0.00   0.37656   3 ;      O-   C21-   C19-   H26
     1     23     21     56      9     0.00   0.37656   3 ;      O-   C21-   C19-   H27
     2      3      7      9      9     0.00   2.17568   3 ;      C-    C1-    C5-    C7
     2      3      7     34      9     0.00   0.54392   3 ;      C-    C1-    C5-    H5
     2      3      7     35      9     0.00   0.54392   3 ;      C-    C1-    C5-    H6
     2      3      8      5      9     0.00   0.00000   0 ;      C-    C1-    C6-    C3
     2      3      8     16      9     0.00   0.00000   0 ;      C-    C1-    C6-   C14
     2      4      9      7      9     0.00   2.17568   3 ;      C-    C2-    C7-    C5
     2      4      9     36      9     0.00   0.54392   3 ;      C-    C2-    C7-    H7
     2      4      9     37      9     0.00   0.54392   3 ;      C-    C2-    C7-    H8
     2      4     12     18      9     0.00   2.17568   3 ;      C-    C2-   C10-   C16
     2      4     12     22      9     0.00   2.17568   3 ;      C-    C2-   C10-   C20
     2      4     12     40      9     0.00   0.54392   3 ;      C-    C2-   C10-   H11
     2      6     11      5      9     0.00   2.17568   3 ;      C-    C4-    C9-    C3
     2      6     11     38      9     0.00   0.54392   3 ;      C-    C4-    C9-    H9
     2      6     11     39      9     0.00   0.54392   3 ;      C-    C4-    C9-   H10
     3      2      4      9      9     0.00   2.17568   3 ;     C1-     C-    C2-    C7
     3      2      4     12      9     0.00   2.17568   3 ;     C1-     C-    C2-   C10
     3      2      4     30      9     0.00   0.54392   3 ;     C1-     C-    C2-    H1
     3      2      6     11      9     0.00   2.17568   3 ;     C1-     C-    C4-    C9
     3      2      6     32      9     0.00   0.54392   3 ;     C1-     C-    C4-    H3
     3      2      6     33      9     0.00   0.54392   3 ;     C1-     C-    C4-    H4
     3      2     13     41      9     0.00   0.54392   3 ;     C1-     C-   C11-   H12
     3      2     13     42      9     0.00   0.54392   3 ;     C1-     C-   C11-   H13
     3      2     13     43      9     0.00   0.54392   3 ;     C1-     C-   C11-   H14
     3      7      9      4      9     0.00   2.17568   3 ;     C1-    C5-    C7-    C2
     3      7      9     36      9     0.00   0.54392   3 ;     C1-    C5-    C7-    H7
     3      7      9     37      9     0.00   0.54392   3 ;     C1-    C5-    C7-    H8
     3      8      5     10      9     0.00   0.00000   0 ;     C1-    C6-    C3-    C8
     3      8      5     11      9     0.00   0.00000   0 ;     C1-    C6-    C3-    C9
     3      8      5     31      9     0.00   0.62760   3 ;     C1-    C6-    C3-    H2
     3      8     16     19      9   180.00  27.82360   2 ;     C1-    C6-   C14-   C17
     3      8     16     46      9   180.00  27.82360   2 ;     C1-    C6-   C14-   H17
     4      2      3      7      9     0.00   2.17568   3 ;     C2-     C-    C1-    C5
     4      2      3      8      9     0.00   0.65084   3 ;     C2-     C-    C1-    C6
     4      2      3     29      9     0.00   0.54392   3 ;     C2-     C-    C1-     H
     4      2      6     11      9     0.00   2.17568   3 ;     C2-     C-    C4-    C9
     4      2      6     32      9     0.00   0.54392   3 ;     C2-     C-    C4-    H3
     4      2      6     33      9     0.00   0.54392   3 ;     C2-     C-    C4-    H4
     4      2     13     41      9     0.00   0.54392   3 ;     C2-     C-   C11-   H12
     4      2     13     42      9     0.00   0.54392   3 ;     C2-     C-   C11-   H13
     4      2     13     43      9     0.00   0.54392   3 ;     C2-     C-   C11-   H14
     4      9      7     34      9     0.00   0.54392   3 ;     C2-    C7-    C5-    H5
     4      9      7     35      9     0.00   0.54392   3 ;     C2-    C7-    C5-    H6
     4     12     18     24      9     0.00   2.17568   3 ;     C2-   C10-   C16-   C22
     4     12     18     50      9     0.00   0.54392   3 ;     C2-   C10-   C16-   H21
     4     12     18     51      9     0.00   0.54392   3 ;     C2-   C10-   C16-   H22
     4     12     22     57      9     0.00   0.54392   3 ;     C2-   C10-   C20-   H28
     4     12     22     58      9     0.00   0.54392   3 ;     C2-   C10-   C20-   H29
     4     12     22     59      9     0.00   0.54392   3 ;     C2-   C10-   C20-   H30
     5      8      3      7      9     0.00   0.00000   0 ;     C3-    C6-    C1-    C5
     5      8      3     29      9     0.00   0.62760   3 ;     C3-    C6-    C1-     H
     5      8     16     19      9   180.00  27.82360   2 ;     C3-    C6-   C14-   C17
     5      8     16     46      9   180.00  27.82360   2 ;     C3-    C6-   C14-   H17
     5     10     14     19      9     0.00   0.00000   0 ;     C3-    C8-   C12-   C17
     5     10     14     20      9     0.00   0.00000   0 ;     C3-    C8-   C12-   C18
     5     10     15     21      9     0.00   2.17568   3 ;     C3-    C8-   C13-   C19
     5     10     15     44      9     0.00   0.54392   3 ;     C3-    C8-   C13-   H15
     5     10     15     45      9     0.00   0.54392   3 ;     C3-    C8-   C13-   H16
     5     10     17     47      9     0.00   0.54392   3 ;     C3-    C8-   C15-   H18
     5     10     17     48      9     0.00   0.54392   3 ;     C3-    C8-   C15-   H19
     5     10     17     49      9     0.00   0.54392   3 ;     C3-    C8-   C15-   H20
     5     11      6     32      9     0.00   0.54392   3 ;     C3-    C9-    C4-    H3
     5     11      6     33      9     0.00   0.54392   3 ;     C3-    C9-    C4-    H4
     6      2      3      7      9     0.00   2.17568   3 ;     C4-     C-    C1-    C5
     6      2      3      8      9     0.00   0.65084   3 ;     C4-     C-    C1-    C6
     6      2      3     29      9     0.00   0.54392   3 ;     C4-     C-    C1-     H
     6      2      4      9      9     0.00   2.17568   3 ;     C4-     C-    C2-    C7
     6      2      4     12      9     0.00   2.17568   3 ;     C4-     C-    C2-   C10
     6      2      4     30      9     0.00   0.54392   3 ;     C4-     C-    C2-    H1
     6      2     13     41      9     0.00   0.54392   3 ;     C4-     C-   C11-   H12
     6      2     13     42      9     0.00   0.54392   3 ;     C4-     C-   C11-   H13
     6      2     13     43      9     0.00   0.54392   3 ;     C4-     C-   C11-   H14
     6     11      5      8      9     0.00   0.65084   3 ;     C4-    C9-    C3-    C6
     6     11      5     10      9     0.00   2.17568   3 ;     C4-    C9-    C3-    C8
     6     11      5     31      9     0.00   0.54392   3 ;     C4-    C9-    C3-    H2
     7      3      2     13      9     0.00   2.17568   3 ;     C5-    C1-     C-   C11
     7      3      8     16      9     0.00   0.00000   0 ;     C5-    C1-    C6-   C14
     7      9      4     12      9     0.00   2.17568   3 ;     C5-    C7-    C2-   C10
     7      9      4     30      9     0.00   0.54392   3 ;     C5-    C7-    C2-    H1
     8      3      2     13      9     0.00   0.65084   3 ;     C6-    C1-     C-   C11
     8      3      7      9      9     0.00   0.65084   3 ;     C6-    C1-    C5-    C7
     8      3      7     34      9     0.00   0.65084   3 ;     C6-    C1-    C5-    H5
     8      3      7     35      9     0.00   0.65084   3 ;     C6-    C1-    C5-    H6
     8      5     10     14      9     0.00   0.65084   3 ;     C6-    C3-    C8-   C12
     8      5     10     15      9     0.00   0.65084   3 ;     C6-    C3-    C8-   C13
     8      5     10     17      9     0.00   0.65084   3 ;     C6-    C3-    C8-   C15
     8      5     11     38      9     0.00   0.65084   3 ;     C6-    C3-    C9-    H9
     8      5     11     39      9     0.00   0.65084   3 ;     C6-    C3-    C9-   H10
     8     16     19     14      9     0.00   3.09616   3 ;     C6-   C14-   C17-   C12
     8     16     19     52      9   180.00   4.18400   2 ;     C6-   C14-   C17-   H23
     9      4      2     13      9     0.00   2.17568   3 ;     C7-    C2-     C-   C11
     9      4     12     18      9     0.00   2.17568   3 ;     C7-    C2-   C10-   C16
     9      4     12     22      9     0.00   2.17568   3 ;     C7-    C2-   C10-   C20
     9      4     12     40      9     0.00   0.54392   3 ;     C7-    C2-   C10-   H11
     9      7      3     29      9     0.00   0.54392   3 ;     C7-    C5-    C1-     H
    10      5      8     16      9     0.00   0.00000   0 ;     C8-    C3-    C6-   C14
    10      5     11     38      9     0.00   0.54392   3 ;     C8-    C3-    C9-    H9
    10      5     11     39      9     0.00   0.54392   3 ;     C8-    C3-    C9-   H10
    10     14     19     16      9   180.00  27.82360   2 ;     C8-   C12-   C17-   C14
    10     14     19     52      9   180.00  27.82360   2 ;     C8-   C12-   C17-   H23
    10     14     20     23      9     0.00   0.00000   0 ;     C8-   C12-   C18-   C21
    10     14     20     53      9     0.00   0.62760   3 ;     C8-   C12-   C18-   H24
    10     14     20     54      9     0.00   0.62760   3 ;     C8-   C12-   C18-   H25
    10     15     21     23      9     0.00   2.17568   3 ;     C8-   C13-   C19-   C21
    10     15     21     55      9     0.00   0.54392   3 ;     C8-   C13-   C19-   H26
    10     15     21     56      9     0.00   0.54392   3 ;     C8-   C13-   C19-   H27
    11      5      8     16      9     0.00   0.00000   0 ;     C9-    C3-    C6-   C14
    11      5     10     14      9     0.00   0.65084   3 ;     C9-    C3-    C8-   C12
    11      5     10     15      9     0.00   2.17568   3 ;     C9-    C3-    C8-   C13
    11      5     10     17      9     0.00   2.17568   3 ;     C9-    C3-    C8-   C15
    11      6      2     13      9     0.00   2.17568   3 ;     C9-    C4-     C-   C11
    12      4      2     13      9     0.00   2.17568   3 ;    C10-    C2-     C-   C11
    12      4      9     36      9     0.00   0.54392   3 ;    C10-    C2-    C7-    H7
    12      4      9     37      9     0.00   0.54392   3 ;    C10-    C2-    C7-    H8
    12     18     24     25      9     0.00   2.17568   3 ;    C10-   C16-   C22-   C23
    12     18     24     61      9     0.00   0.54392   3 ;    C10-   C16-   C22-   H32
    12     18     24     62      9     0.00   0.54392   3 ;    C10-   C16-   C22-   H33
    13      2      3     29      9     0.00   0.54392   3 ;    C11-     C-    C1-     H
    13      2      4     30      9     0.00   0.54392   3 ;    C11-     C-    C2-    H1
    13      2      6     32      9     0.00   0.54392   3 ;    C11-     C-    C4-    H3
    13      2      6     33      9     0.00   0.54392   3 ;    C11-     C-    C4-    H4
    14     10      5     31      9     0.00   0.65084   3 ;    C12-    C8-    C3-    H2
    14     10     15     21      9     0.00   0.65084   3 ;    C12-    C8-   C13-   C19
    14     10     15     44      9     0.00   0.65084   3 ;    C12-    C8-   C13-   H15
    14     10     15     45      9     0.00   0.65084   3 ;    C12-    C8-   C13-   H16
    14     10     17     47      9     0.00   0.65084   3 ;    C12-    C8-   C15-   H18
    14     10     17     48      9     0.00   0.65084   3 ;    C12-    C8-   C15-   H19
    14     10     17     49      9     0.00   0.65084   3 ;    C12-    C8-   C15-   H20
    14     19     16     46      9   180.00   4.18400   2 ;    C12-   C17-   C14-   H17
    14     20     23     21      9     0.00   0.65084   3 ;    C12-   C18-   C21-   C19
    14     20     23     60      9     0.00   0.65084   3 ;    C12-   C18-   C21-   H31
    15     10      5     31      9     0.00   0.54392   3 ;    C13-    C8-    C3-    H2
    15     10     14     19      9     0.00   0.00000   0 ;    C13-    C8-   C12-   C17
    15     10     14     20      9     0.00   0.00000   0 ;    C13-    C8-   C12-   C18
    15     10     17     47      9     0.00   0.54392   3 ;    C13-    C8-   C15-   H18
    15     10     17     48      9     0.00   0.54392   3 ;    C13-    C8-   C15-   H19
    15     10     17     49      9     0.00   0.54392   3 ;    C13-    C8-   C15-   H20
    15     21     23     20      9     0.00   2.17568   3 ;    C13-   C19-   C21-   C18
    15     21     23     60      9     0.00   0.65084   3 ;    C13-   C19-   C21-   H31
    16      8      3     29      9     0.00   0.00000   0 ;    C14-    C6-    C1-     H
    16      8      5     31      9     0.00   0.00000   0 ;    C14-    C6-    C3-    H2
    16     19     14     20      9   180.00  27.82360   2 ;    C14-   C17-   C12-   C18
    17     10      5     31      9     0.00   0.54392   3 ;    C15-    C8-    C3-    H2
    17     10     14     19      9     0.00   0.00000   0 ;    C15-    C8-   C12-   C17
    17     10     14     20      9     0.00   0.00000   0 ;    C15-    C8-   C12-   C18
    17     10     15     21      9     0.00   2.17568   3 ;    C15-    C8-   C13-   C19
    17     10     15     44      9     0.00   0.54392   3 ;    C15-    C8-   C13-   H15
    17     10     15     45      9     0.00   0.54392   3 ;    C15-    C8-   C13-   H16
    18     12      4     30      9     0.00   0.54392   3 ;    C16-   C10-    C2-    H1
    18     12     22     57      9     0.00   0.54392   3 ;    C16-   C10-   C20-   H28
    18     12     22     58      9     0.00   0.54392   3 ;    C16-   C10-   C20-   H29
    18     12     22     59      9     0.00   0.54392   3 ;    C16-   C10-   C20-   H30
    18     24     25     26      9     0.00   2.17568   3 ;    C16-   C22-   C23-   C24
    18     24     25     63      9     0.00   0.54392   3 ;    C16-   C22-   C23-   H34
    18     24     25     64      9     0.00   0.54392   3 ;    C16-   C22-   C23-   H35
    19     14     20     23      9     0.00   0.00000   0 ;    C17-   C12-   C18-   C21
    19     14     20     53      9     0.00   0.00000   0 ;    C17-   C12-   C18-   H24
    19     14     20     54      9     0.00   0.00000   0 ;    C17-   C12-   C18-   H25
    20     14     19     52      9   180.00  27.82360   2 ;    C18-   C12-   C17-   H23
    20     23     21     55      9     0.00   0.54392   3 ;    C18-   C21-   C19-   H26
    20     23     21     56      9     0.00   0.54392   3 ;    C18-   C21-   C19-   H27
    21     23     20     53      9     0.00   0.54392   3 ;    C19-   C21-   C18-   H24
    21     23     20     54      9     0.00   0.54392   3 ;    C19-   C21-   C18-   H25
    22     12      4     30      9     0.00   0.54392   3 ;    C20-   C10-    C2-    H1
    22     12     18     24      9     0.00   2.17568   3 ;    C20-   C10-   C16-   C22
    22     12     18     50      9     0.00   0.54392   3 ;    C20-   C10-   C16-   H21
    22     12     18     51      9     0.00   0.54392   3 ;    C20-   C10-   C16-   H22
    23     21     15     44      9     0.00   0.54392   3 ;    C21-   C19-   C13-   H15
    23     21     15     45      9     0.00   0.54392   3 ;    C21-   C19-   C13-   H16
    24     18     12     40      9     0.00   0.54392   3 ;    C22-   C16-   C10-   H11
    24     25     26     27      9     0.00   2.17568   3 ;    C22-   C23-   C24-   C25
    24     25     26     28      9     0.00   2.17568   3 ;    C22-   C23-   C24-   C26
    24     25     26     66      9     0.00   0.54392   3 ;    C22-   C23-   C24-   H37
    25     24     18     50      9     0.00   0.54392   3 ;    C23-   C22-   C16-   H21
    25     24     18     51      9     0.00   0.54392   3 ;    C23-   C22-   C16-   H22
    25     26     27     67      9     0.00   0.54392   3 ;    C23-   C24-   C25-   H38
    25     26     27     68      9     0.00   0.54392   3 ;    C23-   C24-   C25-   H39
    25     26     27     69      9     0.00   0.54392   3 ;    C23-   C24-   C25-   H40
    25     26     28     70      9     0.00   0.54392   3 ;    C23-   C24-   C26-   H41
    25     26     28     71      9     0.00   0.54392   3 ;    C23-   C24-   C26-   H42
    25     26     28     72      9     0.00   0.54392   3 ;    C23-   C24-   C26-   H43
    26     25     24     61      9     0.00   0.54392   3 ;    C24-   C23-   C22-   H32
    26     25     24     62      9     0.00   0.54392   3 ;    C24-   C23-   C22-   H33
    27     26     25     63      9     0.00   0.54392   3 ;    C25-   C24-   C23-   H34
    27     26     25     64      9     0.00   0.54392   3 ;    C25-   C24-   C23-   H35
    27     26     28     70      9     0.00   0.54392   3 ;    C25-   C24-   C26-   H41
    27     26     28     71      9     0.00   0.54392   3 ;    C25-   C24-   C26-   H42
    27     26     28     72      9     0.00   0.54392   3 ;    C25-   C24-   C26-   H43
    28     26     25     63      9     0.00   0.54392   3 ;    C26-   C24-   C23-   H34
    28     26     25     64      9     0.00   0.54392   3 ;    C26-   C24-   C23-   H35
    28     26     27     67      9     0.00   0.54392   3 ;    C26-   C24-   C25-   H38
    28     26     27     68      9     0.00   0.54392   3 ;    C26-   C24-   C25-   H39
    28     26     27     69      9     0.00   0.54392   3 ;    C26-   C24-   C25-   H40
    29      3      7     34      9     0.00   0.50208   3 ;      H-    C1-    C5-    H5
    29      3      7     35      9     0.00   0.50208   3 ;      H-    C1-    C5-    H6
    30      4      9     36      9     0.00   0.50208   3 ;     H1-    C2-    C7-    H7
    30      4      9     37      9     0.00   0.50208   3 ;     H1-    C2-    C7-    H8
    30      4     12     40      9     0.00   0.50208   3 ;     H1-    C2-   C10-   H11
    31      5     11     38      9     0.00   0.50208   3 ;     H2-    C3-    C9-    H9
    31      5     11     39      9     0.00   0.50208   3 ;     H2-    C3-    C9-   H10
    32      6     11     38      9     0.00   0.50208   3 ;     H3-    C4-    C9-    H9
    32      6     11     39      9     0.00   0.50208   3 ;     H3-    C4-    C9-   H10
    33      6     11     38      9     0.00   0.50208   3 ;     H4-    C4-    C9-    H9
    33      6     11     39      9     0.00   0.50208   3 ;     H4-    C4-    C9-   H10
    34      7      9     36      9     0.00   0.50208   3 ;     H5-    C5-    C7-    H7
    34      7      9     37      9     0.00   0.50208   3 ;     H5-    C5-    C7-    H8
    35      7      9     36      9     0.00   0.50208   3 ;     H6-    C5-    C7-    H7
    35      7      9     37      9     0.00   0.50208   3 ;     H6-    C5-    C7-    H8
    40     12     18     50      9     0.00   0.50208   3 ;    H11-   C10-   C16-   H21
    40     12     18     51      9     0.00   0.50208   3 ;    H11-   C10-   C16-   H22
    40     12     22     57      9     0.00   0.50208   3 ;    H11-   C10-   C20-   H28
    40     12     22     58      9     0.00   0.50208   3 ;    H11-   C10-   C20-   H29
    40     12     22     59      9     0.00   0.50208   3 ;    H11-   C10-   C20-   H30
    44     15     21     55      9     0.00   0.50208   3 ;    H15-   C13-   C19-   H26
    44     15     21     56      9     0.00   0.50208   3 ;    H15-   C13-   C19-   H27
    45     15     21     55      9     0.00   0.50208   3 ;    H16-   C13-   C19-   H26
    45     15     21     56      9     0.00   0.50208   3 ;    H16-   C13-   C19-   H27
    46     16     19     52      9   180.00   4.18400   2 ;    H17-   C14-   C17-   H23
    50     18     24     61      9     0.00   0.50208   3 ;    H21-   C16-   C22-   H32
    50     18     24     62      9     0.00   0.50208   3 ;    H21-   C16-   C22-   H33
    51     18     24     61      9     0.00   0.50208   3 ;    H22-   C16-   C22-   H32
    51     18     24     62      9     0.00   0.50208   3 ;    H22-   C16-   C22-   H33
    53     20     23     60      9     0.00   0.65084   3 ;    H24-   C18-   C21-   H31
    54     20     23     60      9     0.00   0.65084   3 ;    H25-   C18-   C21-   H31
    55     21     23     60      9     0.00   0.65084   3 ;    H26-   C19-   C21-   H31
    56     21     23     60      9     0.00   0.65084   3 ;    H27-   C19-   C21-   H31
    61     24     25     63      9     0.00   0.50208   3 ;    H32-   C22-   C23-   H34
    61     24     25     64      9     0.00   0.50208   3 ;    H32-   C22-   C23-   H35
    62     24     25     63      9     0.00   0.50208   3 ;    H33-   C22-   C23-   H34
    62     24     25     64      9     0.00   0.50208   3 ;    H33-   C22-   C23-   H35
    63     25     26     66      9     0.00   0.50208   3 ;    H34-   C23-   C24-   H37
    64     25     26     66      9     0.00   0.50208   3 ;    H35-   C23-   C24-   H37
    65      1     23     20      9     0.00   0.25104   3 ;    H36-     O-   C21-   C18
    65      1     23     21      9     0.00   0.25104   3 ;    H36-     O-   C21-   C19
    65      1     23     60      9     0.00   0.51463   3 ;    H36-     O-   C21-   H31
    66     26     27     67      9     0.00   0.50208   3 ;    H37-   C24-   C25-   H38
    66     26     27     68      9     0.00   0.50208   3 ;    H37-   C24-   C25-   H39
    66     26     27     69      9     0.00   0.50208   3 ;    H37-   C24-   C25-   H40
    66     26     28     70      9     0.00   0.50208   3 ;    H37-   C24-   C26-   H41
    66     26     28     71      9     0.00   0.50208   3 ;    H37-   C24-   C26-   H42
    66     26     28     72      9     0.00   0.50208   3 ;    H37-   C24-   C26-   H43

[ dihedrals ] ; impropers
; treated as propers in GROMACS to use correct AMBER analytical function
;    i      j      k      l   func   phase     kd      pn
     3      5      8     16      4   180.00   4.60240   2 ;     C1-    C3-    C6-   C14
     8     19     16     46      4   180.00   4.60240   2 ;     C6-   C17-   C14-   H17
    10     20     14     19      4   180.00   4.60240   2 ;     C8-   C18-   C12-   C17
    14     16     19     52      4   180.00   4.60240   2 ;    C12-   C14-   C17-   H23
