439423
    72
   7.5890000  -1.2920000  -0.6310000  -0.8020000   0.7120000   0.6300000
  -0.1270000   0.7320000  -0.7560000  -2.2880000   0.7610000   0.1990000
   1.9480000  -0.4420000   0.1900000  -0.3950000  -0.5990000   1.3230000
  -0.8630000   1.8560000  -1.4910000   1.3760000   0.6820000  -0.6810000
  -2.3050000   1.7800000  -0.9620000   3.5180000  -0.3320000   0.4560000
   1.1290000  -0.6860000   1.4940000  -3.2990000   1.0870000   1.2890000
  -0.4250000   1.9300000   1.5090000   4.2450000   0.3970000  -0.6820000
   4.0710000  -1.7810000   0.6010000   2.1760000   1.4490000  -1.4360000
   3.8290000   0.4680000   1.7460000  -4.7540000   1.0880000   0.7750000
   3.5930000   1.2180000  -1.5210000   5.7410000   0.2220000  -0.7940000
   5.5950000  -1.8760000   0.5880000  -3.1710000   0.0820000   2.4410000
   6.1670000  -1.2380000  -0.6750000  -5.2370000  -0.2130000   0.1210000
  -6.6620000  -0.1250000  -0.4350000  -7.1730000  -1.4530000  -1.0270000
  -7.1360000  -2.5990000  -0.0160000  -6.3390000  -1.8250000  -2.2560000
  -0.4050000  -0.1960000  -1.2860000  -2.5260000  -0.2240000  -0.2280000
   1.7840000  -1.3420000  -0.4250000  -0.7360000  -1.4640000   0.7390000
  -0.8160000  -0.7110000   2.3210000  -0.8290000   1.7230000  -2.5780000
  -0.4340000   2.8400000  -1.2650000  -2.6290000   2.7750000  -0.6370000
  -2.9920000   1.4530000  -1.7510000   1.4050000   0.0360000   2.2680000
   1.3810000  -1.6750000   1.8970000  -3.1130000   2.0890000   1.6950000
   0.6580000   2.0730000   1.5760000  -0.8360000   2.8670000   1.1180000
  -0.7930000   1.8190000   2.5330000   3.6960000  -2.4020000  -0.2230000
   3.6970000  -2.2380000   1.5250000   1.7750000   2.2080000  -2.0990000
   4.8980000   0.6760000   1.8630000   3.3130000   1.4350000   1.7480000
   3.5310000  -0.0820000   2.6460000  -5.4260000   1.3350000   1.6070000
  -4.8720000   1.9050000   0.0520000   4.1230000   1.7510000  -2.3040000
   6.1210000   0.6240000  -1.7420000   6.2360000   0.8150000  -0.0150000
   6.0230000  -1.4050000   1.4810000   5.9000000  -2.9290000   0.6390000
  -3.0690000  -0.9500000   2.0900000  -4.0670000   0.1130000   3.0740000
  -2.3500000   0.3370000   3.1130000   5.8380000  -1.7940000  -1.5610000
  -4.5640000  -0.4750000  -0.6990000  -5.1750000  -1.0130000   0.8650000
  -6.7100000   0.6620000  -1.1980000  -7.3400000   0.1820000   0.3720000
   7.8440000  -2.2280000  -0.5600000  -8.2110000  -1.3000000  -1.3450000
  -6.1160000  -2.9110000   0.2270000  -7.6530000  -3.4760000  -0.4220000
  -7.6430000  -2.3160000   0.9120000  -5.3150000  -2.1120000  -1.9970000
  -6.7920000  -2.6790000  -2.7720000  -6.2960000  -0.9960000  -2.9700000
