; 7-dehydrocholesterol_GMX_OPLS.top created by acpype (v: 2023.10.27) on Mon Feb  9 17:23:55 2026

; Include forcefield parameters
#include "ffoplsaa.itp"

; Include 7-dehydrocholesterol_GMX.itp topology
#include "7-dehydrocholesterol_GMX.itp"

; Ligand position restraints
#ifdef POSRES_LIG
#include "posre_7-dehydrocholesterol.itp"
#endif

[ system ]
 7-dehydrocholesterol

[ molecules ]
; Compound        nmols
 7-dehydrocholesterol 1     
