; guanine_GMX.top created by acpype (v: 2023.10.27) on Mon Feb  9 17:46:17 2026

[ defaults ]
; nbfunc        comb-rule       gen-pairs       fudgeLJ fudgeQQ
1               2               yes             0.5     0.8333333333

; Include guanine_GMX.itp topology
#include "guanine_GMX.itp"

; Ligand position restraints
#ifdef POSRES_LIG
#include "posre_guanine.itp"
#endif

[ system ]
 guanine

[ molecules ]
; Compound        nmols
 guanine          1     
