; guanine_GMX.itp created by acpype (v: 2023.10.27) on Mon Feb  9 17:46:17 2026

[ atomtypes ]
;name   bond_type     mass     charge   ptype   sigma         epsilon       Amb
 o        o           0.00000  0.00000   A     3.04812e-01   6.12119e-01 ; 1.71  0.1463
 na       na          0.00000  0.00000   A     3.20581e-01   8.54373e-01 ; 1.80  0.2042
 ns       ns          0.00000  0.00000   A     3.26995e-01   4.91202e-01 ; 1.84  0.1174
 nc       nc          0.00000  0.00000   A     3.38417e-01   3.93714e-01 ; 1.90  0.0941
 nv       nv          0.00000  0.00000   A     3.36813e-01   4.68608e-01 ; 1.89  0.1120
 cd       cd          0.00000  0.00000   A     3.31521e-01   4.13379e-01 ; 1.86  0.0988
 cc       cc          0.00000  0.00000   A     3.31521e-01   4.13379e-01 ; 1.86  0.0988
 c        c           0.00000  0.00000   A     3.31521e-01   4.13379e-01 ; 1.86  0.0988
 hn       hn          0.00000  0.00000   A     1.10650e-01   4.18400e-02 ; 0.62  0.0100
 h5       h5          0.00000  0.00000   A     2.44730e-01   6.73624e-02 ; 1.37  0.0161

[ moleculetype ]
;name            nrexcl
 guanine          3

[ atoms ]
;   nr  type  resi  res  atom  cgnr     charge      mass       ; qtot   bond_type
     1    o     1   UNL     O    1    -0.636500     16.00000 ; qtot -0.636
     2   na     1   UNL     N    2    -0.279900     14.01000 ; qtot -0.916
     3   ns     1   UNL    N1    3    -0.492400     14.01000 ; qtot -1.409
     4   nc     1   UNL    N2    4    -0.692700     14.01000 ; qtot -2.101
     5   nc     1   UNL    N3    5    -0.645000     14.01000 ; qtot -2.746
     6   nv     1   UNL    N4    6    -0.879800     14.01000 ; qtot -3.626
     7   cd     1   UNL     C    7    -0.351200     12.01000 ; qtot -3.977
     8   cc     1   UNL    C1    8     0.588300     12.01000 ; qtot -3.389
     9    c     1   UNL    C2    9     0.747100     12.01000 ; qtot -2.642
    10   cd     1   UNL    C3   10     0.645800     12.01000 ; qtot -1.996
    11   cd     1   UNL    C4   11     0.441400     12.01000 ; qtot -1.555
    12   hn     1   UNL     H   12     0.322700      1.00800 ; qtot -1.232
    13   hn     1   UNL    H1   13     0.338500      1.00800 ; qtot -0.894
    14   h5     1   UNL    H2   14     0.068100      1.00800 ; qtot -0.826
    15   hn     1   UNL    H3   15     0.412800      1.00800 ; qtot -0.413
    16   hn     1   UNL    H4   16     0.412800      1.00800 ; qtot 0.000

[ bonds ]
;   ai     aj funct   r             k
     1      9   1    1.2190e-01    4.9421e+05 ;      O - C2    
     2      7   1    1.3830e-01    2.7819e+05 ;      N - C     
     2     11   1    1.3830e-01    2.7819e+05 ;      N - C4    
     2     12   1    1.0095e-01    4.0315e+05 ;      N - H     
     3      9   1    1.3798e-01    2.8122e+05 ;     N1 - C2    
     3     10   1    1.3765e-01    2.8439e+05 ;     N1 - C3    
     3     13   1    1.0132e-01    3.9630e+05 ;     N1 - H1    
     4      8   1    1.3629e-01    2.9793e+05 ;     N2 - C1    
     4     10   1    1.3171e-01    3.4961e+05 ;     N2 - C3    
     5      8   1    1.3629e-01    2.9793e+05 ;     N3 - C1    
     5     11   1    1.3171e-01    3.4961e+05 ;     N3 - C4    
     6     10   1    1.3704e-01    2.9037e+05 ;     N4 - C3    
     6     15   1    1.0114e-01    3.9961e+05 ;     N4 - H3    
     6     16   1    1.0114e-01    3.9961e+05 ;     N4 - H4    
     7      8   1    1.3730e-01    3.2321e+05 ;      C - C1    
     7      9   1    1.4728e-01    2.3273e+05 ;      C - C2    
    11     14   1    1.0821e-01    3.0695e+05 ;     C4 - H2    

[ pairs ]
;   ai     aj    funct
     1      2      1 ;      O - N     
     1      8      1 ;      O - C1    
     1     10      1 ;      O - C3    
     1     13      1 ;      O - H1    
     2      3      1 ;      N - N1    
     2      4      1 ;      N - N2    
     3      8      1 ;     N1 - C1    
     3     15      1 ;     N1 - H3    
     3     16      1 ;     N1 - H4    
     4      9      1 ;     N2 - C2    
     4     11      1 ;     N2 - C4    
     4     13      1 ;     N2 - H1    
     4     15      1 ;     N2 - H3    
     4     16      1 ;     N2 - H4    
     5      9      1 ;     N3 - C2    
     5     10      1 ;     N3 - C3    
     5     12      1 ;     N3 - H     
     6      8      1 ;     N4 - C1    
     6      9      1 ;     N4 - C2    
     6     13      1 ;     N4 - H1    
     7     10      1 ;      C - C3    
     7     13      1 ;      C - H1    
     7     14      1 ;      C - H2    
     8     12      1 ;     C1 - H     
     8     14      1 ;     C1 - H2    
     9     11      1 ;     C2 - C4    
     9     12      1 ;     C2 - H     
    12     14      1 ;      H - H2    

[ angles ]
;   ai     aj     ak    funct   theta         cth
     1      9      3      1    1.2305e+02    7.2977e+02 ;      O - C2     - N1    
     1      9      7      1    1.2371e+02    6.5530e+02 ;      O - C2     - C     
     2      7      8      1    1.0899e+02    6.0241e+02 ;      N - C      - C1    
     2      7      9      1    1.2513e+02    5.4149e+02 ;      N - C      - C2    
     2     11      5      1    1.1302e+02    6.4024e+02 ;      N - C4     - N3    
     2     11     14      1    1.2083e+02    4.0116e+02 ;      N - C4     - H2    
     3      9      7      1    1.1220e+02    5.7245e+02 ;     N1 - C2     - C     
     3     10      4      1    1.2346e+02    6.1421e+02 ;     N1 - C3     - N2    
     3     10      6      1    1.1691e+02    6.1948e+02 ;     N1 - C3     - N4    
     4      8      5      1    1.2441e+02    6.0517e+02 ;     N2 - C1     - N3    
     4      8      7      1    1.1799e+02    5.8325e+02 ;     N2 - C1     - C     
     4     10      6      1    1.1987e+02    6.2484e+02 ;     N2 - C3     - N4    
     5      8      7      1    1.1799e+02    5.8325e+02 ;     N3 - C1     - C     
     5     11     14      1    1.2529e+02    4.0911e+02 ;     N3 - C4     - H2    
     7      2     11      1    1.1090e+02    6.9279e+02 ;      C - N      - C4    
     7      2     12      1    1.2524e+02    4.6384e+02 ;      C - N      - H     
     8      4     10      1    1.0915e+02    7.2032e+02 ;     C1 - N2     - C3    
     8      5     11      1    1.0915e+02    7.2032e+02 ;     C1 - N3     - C4    
     8      7      9      1    1.2132e+02    5.1965e+02 ;     C1 - C      - C2    
     9      3     10      1    1.2538e+02    6.5379e+02 ;     C2 - N1     - C3    
     9      3     13      1    1.1726e+02    4.8007e+02 ;     C2 - N1     - H1    
    10      3     13      1    1.1991e+02    4.7580e+02 ;     C3 - N1     - H1    
    10      6     15      1    1.1672e+02    4.8417e+02 ;     C3 - N4     - H3    
    10      6     16      1    1.1672e+02    4.8417e+02 ;     C3 - N4     - H4    
    11      2     12      1    1.2524e+02    4.6384e+02 ;     C4 - N      - H     
    15      6     16      1    1.1528e+02    3.8794e+02 ;     H3 - N4     - H4    

[ dihedrals ] ; propers
; for gromacs 4.5 or higher, using funct 9
;    i      j      k      l   func   phase     kd      pn
     1      9      3     10      9   180.00  10.46000   2 ;      O-    C2-    N1-    C3
     1      9      3     13      9     0.00   8.36800   1 ;      O-    C2-    N1-    H1
     1      9      3     13      9   180.00  10.46000   2 ;      O-    C2-    N1-    H1
     1      9      7      2      9   180.00  12.02900   2 ;      O-    C2-     C-     N
     1      9      7      8      9   180.00  12.02900   2 ;      O-    C2-     C-    C1
     2      7      8      4      9   180.00  16.73600   2 ;      N-     C-    C1-    N2
     2      7      8      5      9   180.00  16.73600   2 ;      N-     C-    C1-    N3
     2      7      9      3      9   180.00  12.02900   2 ;      N-     C-    C2-    N1
     2     11      5      8      9   180.00  19.87400   2 ;      N-    C4-    N3-    C1
     3      9      7      8      9   180.00  12.02900   2 ;     N1-    C2-     C-    C1
     3     10      4      8      9   180.00  19.87400   2 ;     N1-    C3-    N2-    C1
     3     10      6     15      9   180.00   4.39320   2 ;     N1-    C3-    N4-    H3
     3     10      6     16      9   180.00   4.39320   2 ;     N1-    C3-    N4-    H4
     4      8      5     11      9   180.00  19.87400   2 ;     N2-    C1-    N3-    C4
     4      8      7      9      9   180.00  16.73600   2 ;     N2-    C1-     C-    C2
     4     10      3      9      9   180.00   6.90360   2 ;     N2-    C3-    N1-    C2
     4     10      3     13      9   180.00   6.90360   2 ;     N2-    C3-    N1-    H1
     4     10      6     15      9   180.00   4.39320   2 ;     N2-    C3-    N4-    H3
     4     10      6     16      9   180.00   4.39320   2 ;     N2-    C3-    N4-    H4
     5      8      4     10      9   180.00  19.87400   2 ;     N3-    C1-    N2-    C3
     5      8      7      9      9   180.00  16.73600   2 ;     N3-    C1-     C-    C2
     5     11      2      7      9   180.00   7.11280   2 ;     N3-    C4-     N-     C
     5     11      2     12      9   180.00   7.11280   2 ;     N3-    C4-     N-     H
     6     10      3      9      9   180.00   6.90360   2 ;     N4-    C3-    N1-    C2
     6     10      3     13      9   180.00   6.90360   2 ;     N4-    C3-    N1-    H1
     6     10      4      8      9   180.00  19.87400   2 ;     N4-    C3-    N2-    C1
     7      2     11     14      9   180.00   7.11280   2 ;      C-     N-    C4-    H2
     7      8      4     10      9   180.00  19.87400   2 ;      C-    C1-    N2-    C3
     7      8      5     11      9   180.00  19.87400   2 ;      C-    C1-    N3-    C4
     7      9      3     10      9   180.00  10.46000   2 ;      C-    C2-    N1-    C3
     7      9      3     13      9   180.00  10.46000   2 ;      C-    C2-    N1-    H1
     8      5     11     14      9   180.00  19.87400   2 ;     C1-    N3-    C4-    H2
     8      7      2     11      9   180.00   7.11280   2 ;     C1-     C-     N-    C4
     8      7      2     12      9   180.00   7.11280   2 ;     C1-     C-     N-     H
     9      7      2     11      9   180.00   7.11280   2 ;     C2-     C-     N-    C4
     9      7      2     12      9   180.00   7.11280   2 ;     C2-     C-     N-     H
    12      2     11     14      9   180.00   7.11280   2 ;      H-     N-    C4-    H2

[ dihedrals ] ; impropers
; treated as propers in GROMACS to use correct AMBER analytical function
;    i      j      k      l   func   phase     kd      pn
     1      9      3      7      4   180.00  43.93200   2 ;      O-    C2-    N1-     C
     4      3     10      6      4   180.00   4.60240   2 ;     N2-    N1-    C3-    N4
     7      4      8      5      4   180.00   4.60240   2 ;      C-    N2-    C1-    N3
     7     11      2     12      4   180.00   4.60240   2 ;      C-    C4-     N-     H
     9      8      7      2      4   180.00   4.60240   2 ;     C2-    C1-     C-     N
     9     10      3     13      4   180.00   4.60240   2 ;     C2-    C3-    N1-    H1
    10     15      6     16      4   180.00   4.60240   2 ;     C3-    H3-    N4-    H4
    14      2     11      5      4   180.00   4.60240   2 ;     H2-     N-    C4-    N3
