guanine_GMX.gro created by acpype (v: 2023.10.27) on Mon Feb  9 17:46:17 2026
 16
    1  UNL    O    1   0.019   0.267  -0.000
    1  UNL    N    2  -0.207   0.066   0.000
    1  UNL   N1    3   0.157   0.080   0.000
    1  UNL   N2    4   0.076  -0.145  -0.000
    1  UNL   N3    5  -0.172  -0.154  -0.000
    1  UNL   N4    6   0.306  -0.101   0.000
    1  UNL    C    7  -0.072   0.049  -0.000
    1  UNL   C1    8  -0.052  -0.087  -0.000
    1  UNL   C2    9   0.034   0.145  -0.000
    1  UNL   C3   10   0.175  -0.059   0.000
    1  UNL   C4   11  -0.263  -0.059   0.000
    1  UNL    H   12  -0.257   0.154   0.000
    1  UNL   H1   13   0.241   0.138   0.000
    1  UNL   H2   14  -0.370  -0.074   0.000
    1  UNL   H3   15   0.329  -0.200   0.000
    1  UNL   H4   16   0.382  -0.035   0.000
   15.04600     9.32400     0.00400
