; guanine_GMX_OPLS.top created by acpype (v: 2023.10.27) on Mon Feb  9 17:46:17 2026

; Include forcefield parameters
#include "ffoplsaa.itp"

; Include guanine_GMX.itp topology
#include "guanine_GMX.itp"

; Ligand position restraints
#ifdef POSRES_LIG
#include "posre_guanine.itp"
#endif

[ system ]
 guanine

[ molecules ]
; Compound        nmols
 guanine          1     
