135398634
    16
   0.1920000   2.6660000  -0.0000000  -2.0710000   0.6590000   0.0010000
   1.5740000   0.8030000   0.0000000   0.7570000  -1.4540000  -0.0000000
  -1.7190000  -1.5430000  -0.0010000   3.0550000  -1.0100000   0.0010000
  -0.7180000   0.4880000  -0.0000000  -0.5240000  -0.8730000  -0.0000000
   0.3380000   1.4490000  -0.0000000   1.7480000  -0.5920000   0.0000000
  -2.6310000  -0.5930000   0.0010000  -2.5710000   1.5390000   0.0010000
   2.4080000   1.3830000   0.0000000  -3.7010000  -0.7390000   0.0010000
   3.2910000  -1.9960000   0.0010000   3.8220000  -0.3470000   0.0010000
