%VERSION  VERSION_STAMP = V0001.000  DATE = 02/09/26  17:46:18                  
%FLAG TITLE                                                                     
%FORMAT(20a4)                                                                   
135398634                                                                       
%FLAG POINTERS                                                                  
%FORMAT(10I8)                                                                   
      16       8       5      12       9      17      19      26       0       0
      74       1      12      17      26      13      22      10      10       0
       0       0       0       0       0       0       0       0      16       0
       0
%FLAG ATOM_NAME                                                                 
%FORMAT(20a4)                                                                   
O   N   N1  N2  N3  N4  C   C1  C2  C3  C4  H   H1  H2  H3  H4  
%FLAG CHARGE                                                                    
%FORMAT(5E16.8)                                                                 
 -1.15984939E+01 -5.10042177E+00 -8.97266052E+00 -1.26225872E+01 -1.17533835E+01
 -1.60502018E+01 -6.39967176E+00  1.07201791E+01  1.36138803E+01  1.17679613E+01
  8.04332322E+00  5.88033621E+00  6.16824855E+00  1.24093863E+00  7.52216544E+00
  7.52216544E+00
%FLAG ATOMIC_NUMBER                                                             
%FORMAT(10I8)                                                                   
       8       7       7       7       7       7       6       6       6       6
       6       1       1       1       1       1
%FLAG MASS                                                                      
%FORMAT(5E16.8)                                                                 
  1.60000000E+01  1.40100000E+01  1.40100000E+01  1.40100000E+01  1.40100000E+01
  1.40100000E+01  1.20100000E+01  1.20100000E+01  1.20100000E+01  1.20100000E+01
  1.20100000E+01  1.00800000E+00  1.00800000E+00  1.00800000E+00  1.00800000E+00
  1.00800000E+00
%FLAG ATOM_TYPE_INDEX                                                           
%FORMAT(10I8)                                                                   
       1       2       3       4       4       5       6       6       6       6
       6       7       7       8       7       7
%FLAG NUMBER_EXCLUDED_ATOMS                                                     
%FORMAT(10I8)                                                                   
       7       9       9      10       7       6       7       5       4       3
       2       1       1       1       1       1
%FLAG NONBONDED_PARM_INDEX                                                      
%FORMAT(10I8)                                                                   
       1       2       4       7      11      16      22      29       2       3
       5       8      12      17      23      30       4       5       6       9
      13      18      24      31       7       8       9      10      14      19
      25      32      11      12      13      14      15      20      26      33
      16      17      18      19      20      21      27      34      22      23
      24      25      26      27      28      35      29      30      31      32
      33      34      35      36
%FLAG RESIDUE_LABEL                                                             
%FORMAT(20a4)                                                                   
UNL 
%FLAG RESIDUE_POINTER                                                           
%FORMAT(10I8)                                                                   
       1
%FLAG BOND_FORCE_CONSTANT                                                       
%FORMAT(5E16.8)                                                                 
  5.90600000E+02  3.32450000E+02  4.81770000E+02  3.36070000E+02  3.39860000E+02
  4.73590000E+02  3.56030000E+02  4.17790000E+02  3.47000000E+02  4.77540000E+02
  3.86240000E+02  2.78120000E+02  3.66810000E+02
%FLAG BOND_EQUIL_VALUE                                                          
%FORMAT(5E16.8)                                                                 
  1.21900000E+00  1.38300000E+00  1.00950000E+00  1.37980000E+00  1.37650000E+00
  1.01320000E+00  1.36290000E+00  1.31710000E+00  1.37040000E+00  1.01140000E+00
  1.37300000E+00  1.47280000E+00  1.08210000E+00
%FLAG ANGLE_FORCE_CONSTANT                                                      
%FORMAT(5E16.8)                                                                 
  8.72100000E+01  7.83100000E+01  7.19900000E+01  6.47100000E+01  7.65100000E+01
  4.79400000E+01  6.84100000E+01  7.34000000E+01  7.40300000E+01  7.23200000E+01
  6.97000000E+01  7.46700000E+01  4.88900000E+01  8.27900000E+01  5.54300000E+01
  8.60800000E+01  6.21000000E+01  7.81300000E+01  5.73700000E+01  5.68600000E+01
  5.78600000E+01  4.63600000E+01
%FLAG ANGLE_EQUIL_VALUE                                                         
%FORMAT(5E16.8)                                                                 
  2.14762857E+00  2.15914774E+00  1.90223517E+00  2.18393143E+00  1.97257197E+00
  2.10888224E+00  1.95826026E+00  2.15478442E+00  2.04046530E+00  2.17136505E+00
  2.05931487E+00  2.09212707E+00  2.18672396E+00  1.93557097E+00  2.18585129E+00
  1.90502770E+00  2.11743436E+00  2.18829475E+00  2.04657396E+00  2.09282520E+00
  2.03714918E+00  2.01201642E+00
%FLAG DIHEDRAL_FORCE_CONSTANT                                                   
%FORMAT(5E16.8)                                                                 
  2.50000000E+00  2.00000000E+00  2.87500000E+00  4.00000000E+00  4.75000000E+00
  1.05000000E+00  1.65000000E+00  1.70000000E+00  1.10000000E+00  1.05000000E+01
%FLAG DIHEDRAL_PERIODICITY                                                      
%FORMAT(5E16.8)                                                                 
  2.00000000E+00  1.00000000E+00  2.00000000E+00  2.00000000E+00  2.00000000E+00
  2.00000000E+00  2.00000000E+00  2.00000000E+00  2.00000000E+00  2.00000000E+00
%FLAG DIHEDRAL_PHASE                                                            
%FORMAT(5E16.8)                                                                 
  3.14159400E+00  0.00000000E+00  3.14159400E+00  3.14159400E+00  3.14159400E+00
  3.14159400E+00  3.14159400E+00  3.14159400E+00  3.14159400E+00  3.14159400E+00
%FLAG SCEE_SCALE_FACTOR                                                         
%FORMAT(5E16.8)                                                                 
  1.20000000E+00  1.20000000E+00  1.20000000E+00  1.20000000E+00  1.20000000E+00
  1.20000000E+00  1.20000000E+00  1.20000000E+00  0.00000000E+00  0.00000000E+00
%FLAG SCNB_SCALE_FACTOR                                                         
%FORMAT(5E16.8)                                                                 
  2.00000000E+00  2.00000000E+00  2.00000000E+00  2.00000000E+00  2.00000000E+00
  2.00000000E+00  2.00000000E+00  2.00000000E+00  0.00000000E+00  0.00000000E+00
%FLAG SOLTY                                                                     
%FORMAT(5E16.8)                                                                 
  0.00000000E+00  0.00000000E+00  0.00000000E+00  0.00000000E+00  0.00000000E+00
  0.00000000E+00  0.00000000E+00  0.00000000E+00  0.00000000E+00  0.00000000E+00
%FLAG LENNARD_JONES_ACOEF                                                       
%FORMAT(5E16.8)                                                                 
  3.76435470E+05  6.04208667E+05  9.62429652E+05  5.17814271E+05  8.22346035E+05
  7.01825028E+05  5.74782316E+05  9.08092643E+05  7.73425391E+05  8.49322032E+05
  6.08567325E+05  9.62159465E+05  8.19705544E+05  9.00584118E+05  9.54875571E+05
  5.17507491E+05  8.20152428E+05  6.99381362E+05  7.69642101E+05  8.15855629E+05
  6.96551276E+05  9.87857350E+02  1.82491629E+03  1.65195713E+03  2.01475241E+03
  2.10567903E+03  1.71458823E+03  1.34728399E-01  3.59538577E+04  5.96470418E+04
  5.17840911E+04  5.87815925E+04  6.20446596E+04  5.22195041E+04  5.02830284E+01
  2.97255425E+03
%FLAG LENNARD_JONES_BCOEF                                                       
%FORMAT(5E16.8)                                                                 
  4.69350655E+02  6.46321327E+02  8.86629877E+02  5.21008860E+02  7.13654906E+02
  5.74088001E+02  5.19385932E+02  7.09588248E+02  5.70234696E+02  5.65406768E+02
  5.58212938E+02  7.62907640E+02  6.13169384E+02  6.08126668E+02  6.54052181E+02
  4.98871431E+02  6.82622272E+02  5.48900066E+02  5.44830041E+02  5.85909304E+02
  5.24668528E+02  1.22938581E+01  1.81620725E+01  1.50468782E+01  1.57231024E+01
  1.67892226E+01  1.46824710E+01  7.34107347E-02  8.35449674E+01  1.16962018E+02
  9.48968218E+01  9.56653235E+01  1.02658089E+02  9.12729468E+01  1.59752321E+00
  1.38359132E+01
%FLAG BONDS_INC_HYDROGEN                                                        
%FORMAT(10I8)                                                                   
       3      33       3       6      36       6      15      42      10      15
      45      10      30      39      13
%FLAG BONDS_WITHOUT_HYDROGEN                                                    
%FORMAT(10I8)                                                                   
       0      24       1       3      18       2       3      30       2       6
      24       4       6      27       5       9      21       7       9      27
       8      12      21       7      12      30       8      15      27       9
      18      21      11      18      24      12
%FLAG ANGLES_INC_HYDROGEN                                                       
%FORMAT(10I8)                                                                   
       3      30      39       6      12      30      39      13      18       3
      33      15      24       6      36      19      27       6      36      20
      27      15      42      21      27      15      45      21      30       3
      33      15      42      15      45      22
%FLAG ANGLES_WITHOUT_HYDROGEN                                                   
%FORMAT(10I8)                                                                   
       0      24       6       1       0      24      18       2       3      18
      21       3       3      18      24       4       3      30      12       5
       6      24      18       7       6      27       9       8       6      27
      15       9       9      21      12      10       9      21      18      11
       9      27      15      12      12      21      18      11      18       3
      30      14      21       9      27      16      21      12      30      16
      21      18      24      17      24       6      27      18
%FLAG DIHEDRALS_INC_HYDROGEN                                                    
%FORMAT(10I8)                                                                   
       0      24       6      36       2       0      24      -6      36       1
       6      27      15      42       6       6      27      15      45       6
       9      27       6      36       7       9      27      15      42       6
       9      27      15      45       6      12      30       3      33       8
      15      27       6      36       7      18       3      30      39       8
      18      24       6      36       1      21      12      30      39       5
      21      18       3      33       8      24      18       3      33       8
      33       3      30      39       8      18      30      -3     -33       9
      24      27      -6     -36       9      27      42     -15     -45       9
      39       3     -30     -12       9
%FLAG DIHEDRALS_WITHOUT_HYDROGEN                                                
%FORMAT(10I8)                                                                   
       0      24       6      27       1       0      24      18       3       3
       0      24      18      21       3       3      18      21       9       4
       3      18     -21      12       4       3      18      24       6       3
       3      30     -12      21       5       6      24      18      21       3
       6      27      -9      21       5       9      21      12      30       5
       9      21      18      24       4       9      27      -6      24       7
      12      21       9      27       5      12      21      18      24       4
      12      30      -3      18       8      15      27       6      24       7
      15      27       9      21       5      18      21       9      27       5
      18      21     -12      30       5      18      24      -6      27       1
      21      18      -3      30       8      24      18       3      30       8
      24      21     -18      -3       9      18       9     -21     -12       9
       0      24      -6     -18      10       9       6     -27     -15       9
%FLAG EXCLUDED_ATOMS_LIST                                                       
%FORMAT(10I8)                                                                   
       2       3       7       8       9      10      13       3       4       5
       7       8       9      11      12      14       4       6       7       8
       9      10      13      15      16       5       6       7       8       9
      10      11      13      15      16       7       8       9      10      11
      12      14       8       9      10      13      15      16       8       9
      10      11      12      13      14       9      10      11      12      14
      10      11      12      13      13      15      16      12      14      14
       0       0      16       0
%FLAG HBOND_ACOEF                                                               
%FORMAT(5E16.8)                                                                 

%FLAG HBOND_BCOEF                                                               
%FORMAT(5E16.8)                                                                 

%FLAG HBCUT                                                                     
%FORMAT(5E16.8)                                                                 

%FLAG AMBER_ATOM_TYPE                                                           
%FORMAT(20a4)                                                                   
o   na  ns  nc  nc  nv  cd  cc  c   cd  cd  hn  hn  h5  hn  hn  
%FLAG TREE_CHAIN_CLASSIFICATION                                                 
%FORMAT(20a4)                                                                   
BLA BLA BLA BLA BLA BLA BLA BLA BLA BLA BLA BLA BLA BLA BLA BLA 
%FLAG JOIN_ARRAY                                                                
%FORMAT(10I8)                                                                   
       0       0       0       0       0       0       0       0       0       0
       0       0       0       0       0       0
%FLAG IROTAT                                                                    
%FORMAT(10I8)                                                                   
       0       0       0       0       0       0       0       0       0       0
       0       0       0       0       0       0
%FLAG RADIUS_SET                                                                
%FORMAT(1a80)                                                                   
modified Bondi radii (mbondi)                                                   
%FLAG RADII                                                                     
%FORMAT(5E16.8)                                                                 
  1.50000000E+00  1.55000000E+00  1.55000000E+00  1.55000000E+00  1.55000000E+00
  1.55000000E+00  1.70000000E+00  1.70000000E+00  1.70000000E+00  1.70000000E+00
  1.70000000E+00  1.30000000E+00  1.30000000E+00  1.30000000E+00  1.30000000E+00
  1.30000000E+00
%FLAG SCREEN                                                                    
%FORMAT(5E16.8)                                                                 
  8.50000000E-01  7.90000000E-01  7.90000000E-01  7.90000000E-01  7.90000000E-01
  7.90000000E-01  7.20000000E-01  7.20000000E-01  7.20000000E-01  7.20000000E-01
  7.20000000E-01  8.50000000E-01  8.50000000E-01  8.50000000E-01  8.50000000E-01
  8.50000000E-01
%FLAG IPOL                                                                      
%FORMAT(1I8)                                                                    
       0
