%VERSION  VERSION_STAMP = V0001.000  DATE = 02/09/26  17:43:33                  
%FLAG TITLE                                                                     
%FORMAT(20a4)                                                                   
3033                                                                            
%FLAG POINTERS                                                                  
%FORMAT(10I8)                                                                   
      30      10      11      20      22      27      48      39       0       0
     149       1      20      27      39      11      15      12      11       0
       0       0       0       0       0       0       0       0      30       0
       0
%FLAG ATOM_NAME                                                                 
%FORMAT(20a4)                                                                   
Cl  Cl1 O   O1  N   C   C1  C2  C3  C4  C5  C6  C7  C8  C9  C10 C11 C12 C13 H   
H1  H2  H3  H4  H5  H6  H7  H8  H9  H10 
%FLAG CHARGE                                                                    
%FORMAT(5E16.8)                                                                 
 -1.30107222E+00 -1.30107222E+00 -1.09898691E+01 -1.03138218E+01 -1.13889375E+01
 -2.44725489E+00  3.12694668E+00 -1.36849473E+00  2.47094388E+00 -1.62178470E+00
 -3.18890250E+00 -2.97023490E+00 -1.64000700E+00 -2.00445300E-02 -2.00445300E-02
  1.16823165E+01 -2.06823105E+00 -2.06823105E+00 -2.33245440E+00  1.65276261E+00
  1.65276261E+00  8.21461284E+00  2.44178820E+00  2.60578890E+00  2.46001050E+00
  2.44178820E+00  2.76067845E+00  2.76067845E+00  2.62401120E+00  8.10892350E+00
%FLAG ATOMIC_NUMBER                                                             
%FORMAT(10I8)                                                                   
      17      17       8       8       7       6       6       6       6       6
       6       6       6       6       6       6       6       6       6       1
       1       1       1       1       1       1       1       1       1       1
%FLAG MASS                                                                      
%FORMAT(5E16.8)                                                                 
  3.54500000E+01  3.54500000E+01  1.60000000E+01  1.60000000E+01  1.40100000E+01
  1.20100000E+01  1.20100000E+01  1.20100000E+01  1.20100000E+01  1.20100000E+01
  1.20100000E+01  1.20100000E+01  1.20100000E+01  1.20100000E+01  1.20100000E+01
  1.20100000E+01  1.20100000E+01  1.20100000E+01  1.20100000E+01  1.00800000E+00
  1.00800000E+00  1.00800000E+00  1.00800000E+00  1.00800000E+00  1.00800000E+00
  1.00800000E+00  1.00800000E+00  1.00800000E+00  1.00800000E+00  1.00800000E+00
%FLAG ATOM_TYPE_INDEX                                                           
%FORMAT(10I8)                                                                   
       1       1       2       3       4       5       5       6       5       5
       5       5       5       5       5       5       5       5       5       7
       7       8       9       9       9       9       9       9       9      10
%FLAG NUMBER_EXCLUDED_ATOMS                                                     
%FORMAT(10I8)                                                                   
       7       7       7       6      13      14      15       8       9       9
       6       5       4       7       6       3       5       4       3       1
       1       1       1       1       1       1       1       1       1       1
%FLAG NONBONDED_PARM_INDEX                                                      
%FORMAT(10I8)                                                                   
       1       2       4       7      11      16      22      29      37      46
       2       3       5       8      12      17      23      30      38      47
       4       5       6       9      13      18      24      31      39      48
       7       8       9      10      14      19      25      32      40      49
      11      12      13      14      15      20      26      33      41      50
      16      17      18      19      20      21      27      34      42      51
      22      23      24      25      26      27      28      35      43      52
      29      30      31      32      33      34      35      36      44      53
      37      38      39      40      41      42      43      44      45      54
      46      47      48      49      50      51      52      53      54      55
%FLAG RESIDUE_LABEL                                                             
%FORMAT(20a4)                                                                   
UNL 
%FLAG RESIDUE_POINTER                                                           
%FORMAT(10I8)                                                                   
       1
%FLAG BOND_FORCE_CONSTANT                                                       
%FORMAT(5E16.8)                                                                 
  1.87980000E+02  3.59270000E+02  5.35510000E+02  5.90600000E+02  3.19920000E+02
  4.72490000E+02  3.54250000E+02  2.43910000E+02  2.34850000E+02  3.45250000E+02
  3.60690000E+02
%FLAG BOND_EQUIL_VALUE                                                          
%FORMAT(5E16.8)                                                                 
  1.75720000E+00  1.35560000E+00  9.72500000E-01  1.21900000E+00  1.39440000E+00
  1.01370000E+00  1.39860000E+00  1.51470000E+00  1.52700000E+00  1.09620000E+00
  1.08600000E+00
%FLAG ANGLE_FORCE_CONSTANT                                                      
%FORMAT(5E16.8)                                                                 
  6.40600000E+01  1.02030000E+02  7.74200000E+01  7.64500000E+01  6.74900000E+01
  6.36700000E+01  6.08400000E+01  4.36100000E+01  4.49000000E+01  7.57600000E+01
  5.74600000E+01  6.07400000E+01  6.84600000E+01  4.36300000E+01  3.58000000E+01
%FLAG ANGLE_EQUIL_VALUE                                                         
%FORMAT(5E16.8)                                                                 
  2.08357495E+00  2.13087340E+00  1.96768504E+00  2.14501057E+00  2.10731144E+00
  2.09474507E+00  1.94010883E+00  1.93085858E+00  2.09230160E+00  2.27381592E+00
  2.00241711E+00  2.10888224E+00  1.85947458E+00  1.90153704E+00  1.88024401E+00
%FLAG DIHEDRAL_FORCE_CONSTANT                                                   
%FORMAT(5E16.8)                                                                 
  3.62500000E+00  0.00000000E+00  1.90000000E+00  2.30000000E+00  4.03000000E+00
  3.66000000E+00  8.00000000E-01  1.05000000E+00  0.00000000E+00  0.00000000E+00
  1.80000000E+00  1.10000000E+00
%FLAG DIHEDRAL_PERIODICITY                                                      
%FORMAT(5E16.8)                                                                 
  2.00000000E+00  2.00000000E+00  1.00000000E+00  2.00000000E+00  1.00000000E+00
  2.00000000E+00  2.00000000E+00  2.00000000E+00  2.00000000E+00  1.00000000E+00
  2.00000000E+00  2.00000000E+00
%FLAG DIHEDRAL_PHASE                                                            
%FORMAT(5E16.8)                                                                 
  3.14159400E+00  3.14159400E+00  0.00000000E+00  3.14159400E+00  0.00000000E+00
  3.14159400E+00  3.14159400E+00  3.14159400E+00  0.00000000E+00  0.00000000E+00
  3.14159400E+00  3.14159400E+00
%FLAG SCEE_SCALE_FACTOR                                                         
%FORMAT(5E16.8)                                                                 
  1.20000000E+00  1.20000000E+00  1.20000000E+00  1.20000000E+00  1.20000000E+00
  1.20000000E+00  1.20000000E+00  1.20000000E+00  1.20000000E+00  1.20000000E+00
  1.20000000E+00  0.00000000E+00
%FLAG SCNB_SCALE_FACTOR                                                         
%FORMAT(5E16.8)                                                                 
  2.00000000E+00  2.00000000E+00  2.00000000E+00  2.00000000E+00  2.00000000E+00
  2.00000000E+00  2.00000000E+00  2.00000000E+00  2.00000000E+00  2.00000000E+00
  2.00000000E+00  0.00000000E+00
%FLAG SOLTY                                                                     
%FORMAT(5E16.8)                                                                 
  0.00000000E+00  0.00000000E+00  0.00000000E+00  0.00000000E+00  0.00000000E+00
  0.00000000E+00  0.00000000E+00  0.00000000E+00  0.00000000E+00  0.00000000E+00
  0.00000000E+00
%FLAG LENNARD_JONES_ACOEF                                                       
%FORMAT(5E16.8)                                                                 
  3.17107030E+06  1.27155594E+06  5.03152404E+05  1.11993097E+06  4.37717034E+05
  3.76435470E+05  1.74815785E+06  6.93275573E+05  6.04358274E+05  9.54886922E+05
  1.49062160E+06  5.92438683E+05  5.17507491E+05  8.15700858E+05  6.96551276E+05
  1.80018612E+06  7.18991463E+05  6.30925504E+05  9.89136215E+05  8.43969952E+05
  1.02073671E+06  1.79601155E+05  6.80216136E+04  5.68021765E+04  9.44129241E+04
  8.12662403E+04  1.00235148E+05  7.94617769E+03  4.18912581E+03  1.36475542E+03
  9.87857350E+02  1.94284817E+03  1.71458823E+03  2.23577481E+03  9.47421632E+01
  1.34728399E-01  1.66104821E+05  6.30298721E+04  5.27277400E+04  8.74566229E+04
  7.52549148E+04  9.27554496E+04  7.41026906E+03  9.04434904E+01  6.90855956E+03
  5.83653537E+02  1.74176419E+02  1.15813907E+02  2.51671102E+02  2.25372434E+02
  3.03553352E+02  8.80612241E+00  2.61760843E-03  8.53132435E+00  1.10360882E-05
%FLAG LENNARD_JONES_BCOEF                                                       
%FORMAT(5E16.8)                                                                 
  1.82923847E+03  8.92559477E+02  4.32634597E+02  9.38113535E+02  4.51916854E+02
  4.69350655E+02  1.18814963E+03  5.76548442E+02  6.02865504E+02  7.68192761E+02
  9.81118883E+02  4.76608379E+02  4.98871431E+02  6.34916791E+02  5.24668528E+02
  1.10195051E+03  5.36620538E+02  5.62969425E+02  7.14570130E+02  5.90251928E+02
  6.63431737E+02  2.30684859E+02  1.09393126E+02  1.11953944E+02  1.46316625E+02
  1.21392023E+02  1.37787728E+02  2.57122925E+01  2.93366416E+01  1.29026271E+01
  1.22938581E+01  1.74775900E+01  1.46824710E+01  1.71355763E+01  2.33785449E+00
  7.34107347E-02  2.08087638E+02  9.87712192E+01  1.01173582E+02  1.32088478E+02
  1.09570372E+02  1.24325688E+02  2.32899892E+01  2.14252117E+00  2.10929191E+01
  9.06673074E+00  3.81654050E+00  3.48534600E+00  5.20838712E+00  4.40751799E+00
  5.22789272E+00  5.90150328E-01  8.47240681E-03  5.44840215E-01  4.55498033E-04
%FLAG BONDS_INC_HYDROGEN                                                        
%FORMAT(10I8)                                                                   
       6      87       3      12      63       6      21      57      10      21
      60      10      27      66      11      30      69      11      33      72
      11      36      75      11      48      78      11      51      81      11
      54      84      11
%FLAG BONDS_WITHOUT_HYDROGEN                                                    
%FORMAT(10I8)                                                                   
       0      39       1       3      42       1       6      45       2       9
      45       4      12      18       5      12      24       5      15      18
       7      15      21       8      15      27       7      18      30       7
      21      45       9      24      39       7      24      42       7      27
      33       7      30      36       7      33      36       7      39      48
       7      42      51       7      48      54       7      51      54       7
%FLAG ANGLES_INC_HYDROGEN                                                       
%FORMAT(10I8)                                                                   
      15      21      57       8      15      21      60       8      15      27
      66       9      18      12      63      11      18      30      69       9
      24      12      63      11      27      33      72       9      30      36
      75       9      33      27      66       9      33      36      75       9
      36      30      69       9      36      33      72       9      39      48
      78       9      42      51      81       9      45       6      87      13
      45      21      57      14      45      21      60      14      48      54
      84       9      51      54      84       9      54      48      78       9
      54      51      81       9      57      21      60      15
%FLAG ANGLES_WITHOUT_HYDROGEN                                                   
%FORMAT(10I8)                                                                   
       0      39      24       1       0      39      48       1       3      42
      24       1       3      42      51       1       6      45       9       2
       6      45      21       3       9      45      21       4      12      18
      15       5      12      18      30       5      12      24      39       5
      12      24      42       5      15      18      30       6      15      21
      45       7      15      27      33       6      18      12      24      10
      18      15      21      12      18      15      27       6      18      30
      36       6      21      15      27      12      24      39      48       6
      24      42      51       6      27      33      36       6      30      36
      33       6      39      24      42       6      39      48      54       6
      42      51      54       6      48      54      51       6
%FLAG DIHEDRALS_INC_HYDROGEN                                                    
%FORMAT(10I8)                                                                   
       0      39      48      78       1       3      42      51      81       1
       6      45      21      57       2       6      45      21      60       2
       9      45       6      87       3       9      45      -6      87       4
       9      45      21      57       5       9      45     -21      57       6
       9      45      21      60       5       9      45     -21      60       6
      12      18      30      69       1      15      18      12      63       8
      15      18      30      69       1      15      27      33      72       1
      18      15      21      57      10      18      15      21      60      10
      18      15      27      66       1      18      30      36      75       1
      21      15      27      66       1      21      45       6      87      11
      24      39      48      78       1      24      42      51      81       1
      27      15      21      57      10      27      15      21      60      10
      27      33      36      75       1      30      18      12      63       8
      30      36      33      72       1      33      36      30      69       1
      36      33      27      66       1      39      24      12      63       8
      39      48      54      84       1      42      24      12      63       8
      42      51      54      84       1      48      54      51      81       1
      51      54      48      78       1      66      27      33      72       1
      69      30      36      75       1      72      33      36      75       1
      78      48      54      84       1      81      51      54      84       1
      18      24     -12     -63      12      15      33     -27     -66      12
      18      36     -30     -69      12      27      36     -33     -72      12
      30      33     -36     -75      12      39      54     -48     -78      12
      42      54     -51     -81      12      48      51     -54     -84      12
%FLAG DIHEDRALS_WITHOUT_HYDROGEN                                                
%FORMAT(10I8)                                                                   
       0      39      24      12       1       0      39      24      42       1
       0      39      48      54       1       3      42      24      12       1
       3      42      24      39       1       3      42      51      54       1
       6      45      21      15       2       9      45      21      15       2
      12      18      15      21       1      12      18      15      27       1
      12      18      30      36       1      12      24      39      48       1
      12      24      42      51       1      15      18      12      24       7
      15      18      30      36       1      15      27     -33      36       1
      18      12      24      39       7      18      12      24      42       7
      18      15      21      45       9      18      15      27      33       1
      18      30     -36      33       1      21      15      18      30       1
      21      15      27      33       1      24      12      18      30       7
      24      39      48      54       1      24      42     -51      54       1
      27      15      18      30       1      27      15      21      45       9
      27      33     -36      30       1      39      24      42      51       1
      39      48     -54      51       1      42      24      39      48       1
      42      51     -54      48       1      18      27     -15     -21      12
      15      30     -18     -12      12      39      42     -24     -12      12
       0      39     -48     -24      12      24      51     -42      -3      12
      21       9     -45      -6      12
%FLAG EXCLUDED_ATOMS_LIST                                                       
%FORMAT(10I8)                                                                   
       5       9      14      15      17      19      27       5       9      14
      15      18      19      28       4       6       8      16      20      21
      30       6       8      16      20      21      30       6       7       8
       9      10      11      13      14      15      17      18      22      24
       7       8       9      10      11      12      13      16      20      21
      22      23      24      25       8       9      10      11      12      13
      14      15      16      20      21      22      23      24      26      10
      11      12      16      20      21      23      30      11      14      15
      17      18      19      22      27      28      11      12      13      16
      20      21      23      25      26      12      13      22      24      25
      26      13      23      24      25      26      23      24      25      26
      15      17      18      19      22      27      29      17      18      19
      22      28      29      20      21      30      18      19      27      28
      29      19      27      28      29      27      28      29      21       0
       0      25      26      26       0      29      29       0       0
%FLAG HBOND_ACOEF                                                               
%FORMAT(5E16.8)                                                                 

%FLAG HBOND_BCOEF                                                               
%FORMAT(5E16.8)                                                                 

%FLAG HBCUT                                                                     
%FORMAT(5E16.8)                                                                 

%FLAG AMBER_ATOM_TYPE                                                           
%FORMAT(20a4)                                                                   
cl  cl  oh  o   nu  ca  ca  c3  ca  ca  ca  ca  ca  ca  ca  c   ca  ca  ca  hc  
hc  hn  ha  ha  ha  ha  ha  ha  ha  ho  
%FLAG TREE_CHAIN_CLASSIFICATION                                                 
%FORMAT(20a4)                                                                   
BLA BLA BLA BLA BLA BLA BLA BLA BLA BLA BLA BLA BLA BLA BLA BLA BLA BLA BLA BLA 
BLA BLA BLA BLA BLA BLA BLA BLA BLA BLA 
%FLAG JOIN_ARRAY                                                                
%FORMAT(10I8)                                                                   
       0       0       0       0       0       0       0       0       0       0
       0       0       0       0       0       0       0       0       0       0
       0       0       0       0       0       0       0       0       0       0
%FLAG IROTAT                                                                    
%FORMAT(10I8)                                                                   
       0       0       0       0       0       0       0       0       0       0
       0       0       0       0       0       0       0       0       0       0
       0       0       0       0       0       0       0       0       0       0
%FLAG RADIUS_SET                                                                
%FORMAT(1a80)                                                                   
modified Bondi radii (mbondi)                                                   
%FLAG RADII                                                                     
%FORMAT(5E16.8)                                                                 
  1.70000000E+00  1.70000000E+00  1.50000000E+00  1.50000000E+00  1.55000000E+00
  1.70000000E+00  1.70000000E+00  1.70000000E+00  1.70000000E+00  1.70000000E+00
  1.70000000E+00  1.70000000E+00  1.70000000E+00  1.70000000E+00  1.70000000E+00
  1.70000000E+00  1.70000000E+00  1.70000000E+00  1.70000000E+00  1.30000000E+00
  1.30000000E+00  1.30000000E+00  1.30000000E+00  1.30000000E+00  1.30000000E+00
  1.30000000E+00  1.30000000E+00  1.30000000E+00  1.30000000E+00  8.00000000E-01
%FLAG SCREEN                                                                    
%FORMAT(5E16.8)                                                                 
  8.00000000E-01  8.00000000E-01  8.50000000E-01  8.50000000E-01  7.90000000E-01
  7.20000000E-01  7.20000000E-01  7.20000000E-01  7.20000000E-01  7.20000000E-01
  7.20000000E-01  7.20000000E-01  7.20000000E-01  7.20000000E-01  7.20000000E-01
  7.20000000E-01  7.20000000E-01  7.20000000E-01  7.20000000E-01  8.50000000E-01
  8.50000000E-01  8.50000000E-01  8.50000000E-01  8.50000000E-01  8.50000000E-01
  8.50000000E-01  8.50000000E-01  8.50000000E-01  8.50000000E-01  8.50000000E-01
%FLAG IPOL                                                                      
%FORMAT(1I8)                                                                    
       0
