; diclofenac_GMX.top created by acpype (v: 2023.10.27) on Mon Feb  9 17:43:05 2026

[ defaults ]
; nbfunc        comb-rule       gen-pairs       fudgeLJ fudgeQQ
1               2               yes             0.5     0.8333333333

; Include diclofenac_GMX.itp topology
#include "diclofenac_GMX.itp"

; Ligand position restraints
#ifdef POSRES_LIG
#include "posre_diclofenac.itp"
#endif

[ system ]
 diclofenac

[ molecules ]
; Compound        nmols
 diclofenac       1     
