; diclofenac_GMX_OPLS.top created by acpype (v: 2023.10.27) on Mon Feb  9 17:43:05 2026

; Include forcefield parameters
#include "ffoplsaa.itp"

; Include diclofenac_GMX.itp topology
#include "diclofenac_GMX.itp"

; Ligand position restraints
#ifdef POSRES_LIG
#include "posre_diclofenac.itp"
#endif

[ system ]
 diclofenac

[ molecules ]
; Compound        nmols
 diclofenac       1     
