3033
    30
   1.9540000   1.1500000  -2.5080000   1.1380000  -1.6390000   2.1140000
  -3.2620000  -2.9280000  -1.0650000  -2.7910000  -1.9110000   0.9090000
   0.2680000  -0.2050000  -0.3990000  -2.0640000   0.5140000  -0.3770000
  -0.7310000   0.7180000  -0.0190000  -2.4760000  -0.6830000  -1.1700000
   1.6570000  -0.2480000  -0.1790000  -3.0380000   1.4350000   0.0080000
  -0.3730000   1.8430000   0.7230000  -2.6800000   2.5600000   0.7510000
  -1.3470000   2.7640000   1.1080000   2.5350000   0.3480000  -1.0920000
   2.1740000  -0.8860000   0.9530000  -2.8480000  -1.8750000  -0.3120000
   3.9120000   0.3060000  -0.8740000   3.5510000  -0.9280000   1.1710000
   4.4200000  -0.3320000   0.2580000  -1.7090000  -0.9790000  -1.8930000
  -3.3610000  -0.4270000  -1.7680000  -0.0860000  -1.1150000  -0.6780000
  -4.0810000   1.2880000  -0.2600000   0.6570000   2.0280000   1.0170000
  -3.4380000   3.2770000   1.0510000  -1.0680000   3.6400000   1.6870000
   4.6040000   0.7650000  -1.5760000   3.9630000  -1.4210000   2.0480000
   5.4920000  -0.3650000   0.4270000  -3.5020000  -3.7010000  -0.5100000
