diclofenac_GMX.gro created by acpype (v: 2023.10.27) on Mon Feb  9 17:43:05 2026
 30
    1  UNL   CL    1   0.195   0.115  -0.251
    1  UNL  CL1    2   0.114  -0.164   0.211
    1  UNL    O    3  -0.326  -0.293  -0.106
    1  UNL   O1    4  -0.279  -0.191   0.091
    1  UNL    N    5   0.027  -0.021  -0.040
    1  UNL    C    6  -0.206   0.051  -0.038
    1  UNL   C1    7  -0.073   0.072  -0.002
    1  UNL   C2    8  -0.248  -0.068  -0.117
    1  UNL   C3    9   0.166  -0.025  -0.018
    1  UNL   C4   10  -0.304   0.144   0.001
    1  UNL   C5   11  -0.037   0.184   0.072
    1  UNL   C6   12  -0.268   0.256   0.075
    1  UNL   C7   13  -0.135   0.276   0.111
    1  UNL   C8   14   0.254   0.035  -0.109
    1  UNL   C9   15   0.217  -0.089   0.095
    1  UNL  C10   16  -0.285  -0.188  -0.031
    1  UNL  C11   17   0.391   0.031  -0.087
    1  UNL  C12   18   0.355  -0.093   0.117
    1  UNL  C13   19   0.442  -0.033   0.026
    1  UNL    H   20  -0.171  -0.098  -0.189
    1  UNL   H1   21  -0.336  -0.043  -0.177
    1  UNL   H2   22  -0.009  -0.112  -0.068
    1  UNL   H3   23  -0.408   0.129  -0.026
    1  UNL   H4   24   0.066   0.203   0.102
    1  UNL   H5   25  -0.344   0.328   0.105
    1  UNL   H6   26  -0.107   0.364   0.169
    1  UNL   H7   27   0.460   0.077  -0.158
    1  UNL   H8   28   0.396  -0.142   0.205
    1  UNL   H9   29   0.549  -0.036   0.043
    1  UNL  H10   30  -0.350  -0.370  -0.051
   19.14600    14.68200     9.24400
