; diclofenac_GMX.itp created by acpype (v: 2023.10.27) on Mon Feb  9 17:43:05 2026

[ atomtypes ]
;name   bond_type     mass     charge   ptype   sigma         epsilon       Amb
 cl       cl          0.00000  0.00000   A     3.46595e-01   1.10374e+00 ; 1.95  0.2638
 oh       oh          0.00000  0.00000   A     3.24287e-01   3.89112e-01 ; 1.82  0.0930
 o        o           0.00000  0.00000   A     3.04812e-01   6.12119e-01 ; 1.71  0.1463
 nu       nu          0.00000  0.00000   A     3.27904e-01   6.46428e-01 ; 1.84  0.1545
 ca       ca          0.00000  0.00000   A     3.31521e-01   4.13379e-01 ; 1.86  0.0988
 c3       c3          0.00000  0.00000   A     3.39771e-01   4.51035e-01 ; 1.91  0.1078
 c        c           0.00000  0.00000   A     3.31521e-01   4.13379e-01 ; 1.86  0.0988
 hc       hc          0.00000  0.00000   A     2.60018e-01   8.70272e-02 ; 1.46  0.0208
 hn       hn          0.00000  0.00000   A     1.10650e-01   4.18400e-02 ; 0.62  0.0100
 ha       ha          0.00000  0.00000   A     2.62548e-01   6.73624e-02 ; 1.47  0.0161
 ho       ho          0.00000  0.00000   A     5.37925e-02   1.96648e-02 ; 0.30  0.0047

[ moleculetype ]
;name            nrexcl
 diclofenac       3

[ atoms ]
;   nr  type  resi  res  atom  cgnr     charge      mass       ; qtot   bond_type
     1   cl     1   UNL    CL    1    -0.071400     35.45000 ; qtot -0.071
     2   cl     1   UNL   CL1    2    -0.071400     35.45000 ; qtot -0.143
     3   oh     1   UNL     O    3    -0.603100     16.00000 ; qtot -0.746
     4    o     1   UNL    O1    4    -0.566000     16.00000 ; qtot -1.312
     5   nu     1   UNL     N    5    -0.625000     14.01000 ; qtot -1.937
     6   ca     1   UNL     C    6    -0.134300     12.01000 ; qtot -2.071
     7   ca     1   UNL    C1    7     0.171600     12.01000 ; qtot -1.900
     8   c3     1   UNL    C2    8    -0.075100     12.01000 ; qtot -1.975
     9   ca     1   UNL    C3    9     0.135600     12.01000 ; qtot -1.839
    10   ca     1   UNL    C4   10    -0.089000     12.01000 ; qtot -1.928
    11   ca     1   UNL    C5   11    -0.175000     12.01000 ; qtot -2.103
    12   ca     1   UNL    C6   12    -0.163000     12.01000 ; qtot -2.266
    13   ca     1   UNL    C7   13    -0.090000     12.01000 ; qtot -2.356
    14   ca     1   UNL    C8   14    -0.001100     12.01000 ; qtot -2.357
    15   ca     1   UNL    C9   15    -0.001100     12.01000 ; qtot -2.358
    16    c     1   UNL   C10   16     0.643100     12.01000 ; qtot -1.715
    17   ca     1   UNL   C11   17    -0.113500     12.01000 ; qtot -1.829
    18   ca     1   UNL   C12   18    -0.113500     12.01000 ; qtot -1.942
    19   ca     1   UNL   C13   19    -0.128000     12.01000 ; qtot -2.070
    20   hc     1   UNL     H   20     0.090700      1.00800 ; qtot -1.979
    21   hc     1   UNL    H1   21     0.090700      1.00800 ; qtot -1.889
    22   hn     1   UNL    H2   22     0.450800      1.00800 ; qtot -1.438
    23   ha     1   UNL    H3   23     0.134000      1.00800 ; qtot -1.304
    24   ha     1   UNL    H4   24     0.143000      1.00800 ; qtot -1.161
    25   ha     1   UNL    H5   25     0.135000      1.00800 ; qtot -1.026
    26   ha     1   UNL    H6   26     0.134000      1.00800 ; qtot -0.892
    27   ha     1   UNL    H7   27     0.151500      1.00800 ; qtot -0.740
    28   ha     1   UNL    H8   28     0.151500      1.00800 ; qtot -0.589
    29   ha     1   UNL    H9   29     0.144000      1.00800 ; qtot -0.445
    30   ho     1   UNL   H10   30     0.445000      1.00800 ; qtot 0.000

[ bonds ]
;   ai     aj funct   r             k
     1     14   1    1.7572e-01    1.5730e+05 ;     CL - C8    
     2     15   1    1.7572e-01    1.5730e+05 ;    CL1 - C9    
     3     16   1    1.3556e-01    3.0064e+05 ;      O - C10   
     3     30   1    9.7250e-02    4.4811e+05 ;      O - H10   
     4     16   1    1.2190e-01    4.9421e+05 ;     O1 - C10   
     5      7   1    1.3944e-01    2.6771e+05 ;      N - C1    
     5      9   1    1.3944e-01    2.6771e+05 ;      N - C3    
     5     22   1    1.0137e-01    3.9538e+05 ;      N - H2    
     6      7   1    1.3986e-01    2.9644e+05 ;      C - C1    
     6      8   1    1.5147e-01    2.0410e+05 ;      C - C2    
     6     10   1    1.3986e-01    2.9644e+05 ;      C - C4    
     7     11   1    1.3986e-01    2.9644e+05 ;     C1 - C5    
     8     16   1    1.5270e-01    1.9652e+05 ;     C2 - C10   
     8     20   1    1.0962e-01    2.8891e+05 ;     C2 - H     
     8     21   1    1.0962e-01    2.8891e+05 ;     C2 - H1    
     9     14   1    1.3986e-01    2.9644e+05 ;     C3 - C8    
     9     15   1    1.3986e-01    2.9644e+05 ;     C3 - C9    
    10     12   1    1.3986e-01    2.9644e+05 ;     C4 - C6    
    10     23   1    1.0860e-01    3.0183e+05 ;     C4 - H3    
    11     13   1    1.3986e-01    2.9644e+05 ;     C5 - C7    
    11     24   1    1.0860e-01    3.0183e+05 ;     C5 - H4    
    12     13   1    1.3986e-01    2.9644e+05 ;     C6 - C7    
    12     25   1    1.0860e-01    3.0183e+05 ;     C6 - H5    
    13     26   1    1.0860e-01    3.0183e+05 ;     C7 - H6    
    14     17   1    1.3986e-01    2.9644e+05 ;     C8 - C11   
    15     18   1    1.3986e-01    2.9644e+05 ;     C9 - C12   
    17     19   1    1.3986e-01    2.9644e+05 ;    C11 - C13   
    17     27   1    1.0860e-01    3.0183e+05 ;    C11 - H7    
    18     19   1    1.3986e-01    2.9644e+05 ;    C12 - C13   
    18     28   1    1.0860e-01    3.0183e+05 ;    C12 - H8    
    19     29   1    1.0860e-01    3.0183e+05 ;    C13 - H9    

[ pairs ]
;   ai     aj    funct
     1      5      1 ;     CL - N     
     1     15      1 ;     CL - C9    
     1     19      1 ;     CL - C13   
     1     27      1 ;     CL - H7    
     2      5      1 ;    CL1 - N     
     2     14      1 ;    CL1 - C8    
     2     19      1 ;    CL1 - C13   
     2     28      1 ;    CL1 - H8    
     3      6      1 ;      O - C     
     3     20      1 ;      O - H     
     3     21      1 ;      O - H1    
     4      6      1 ;     O1 - C     
     4     20      1 ;     O1 - H     
     4     21      1 ;     O1 - H1    
     4     30      1 ;     O1 - H10   
     5      8      1 ;      N - C2    
     5     10      1 ;      N - C4    
     5     13      1 ;      N - C7    
     5     17      1 ;      N - C11   
     5     18      1 ;      N - C12   
     5     24      1 ;      N - H4    
     6      9      1 ;      C - C3    
     6     13      1 ;      C - C7    
     6     22      1 ;      C - H2    
     6     24      1 ;      C - H4    
     6     25      1 ;      C - H5    
     7     12      1 ;     C1 - C6    
     7     14      1 ;     C1 - C8    
     7     15      1 ;     C1 - C9    
     7     16      1 ;     C1 - C10   
     7     20      1 ;     C1 - H     
     7     21      1 ;     C1 - H1    
     7     23      1 ;     C1 - H3    
     7     26      1 ;     C1 - H6    
     8     11      1 ;     C2 - C5    
     8     12      1 ;     C2 - C6    
     8     23      1 ;     C2 - H3    
     8     30      1 ;     C2 - H10   
     9     11      1 ;     C3 - C5    
     9     19      1 ;     C3 - C13   
     9     27      1 ;     C3 - H7    
     9     28      1 ;     C3 - H8    
    10     11      1 ;     C4 - C5    
    10     16      1 ;     C4 - C10   
    10     20      1 ;     C4 - H     
    10     21      1 ;     C4 - H1    
    10     26      1 ;     C4 - H6    
    11     22      1 ;     C5 - H2    
    11     25      1 ;     C5 - H5    
    12     24      1 ;     C6 - H4    
    13     23      1 ;     C7 - H3    
    14     18      1 ;     C8 - C12   
    14     22      1 ;     C8 - H2    
    14     29      1 ;     C8 - H9    
    15     17      1 ;     C9 - C11   
    15     22      1 ;     C9 - H2    
    15     29      1 ;     C9 - H9    
    17     28      1 ;    C11 - H8    
    18     27      1 ;    C12 - H7    
    23     25      1 ;     H3 - H5    
    24     26      1 ;     H4 - H6    
    25     26      1 ;     H5 - H6    
    27     29      1 ;     H7 - H9    
    28     29      1 ;     H8 - H9    

[ angles ]
;   ai     aj     ak    funct   theta         cth
     1     14      9      1    1.1938e+02    5.3605e+02 ;     CL - C8     - C3    
     1     14     17      1    1.1938e+02    5.3605e+02 ;     CL - C8     - C11   
     2     15      9      1    1.1938e+02    5.3605e+02 ;    CL1 - C9     - C3    
     2     15     18      1    1.1938e+02    5.3605e+02 ;    CL1 - C9     - C12   
     3     16      4      1    1.2209e+02    8.5379e+02 ;      O - C10    - O1    
     3     16      8      1    1.1274e+02    6.4785e+02 ;      O - C10    - C2    
     4     16      8      1    1.2290e+02    6.3973e+02 ;     O1 - C10    - C2    
     5      7      6      1    1.2074e+02    5.6476e+02 ;      N - C1     - C     
     5      7     11      1    1.2074e+02    5.6476e+02 ;      N - C1     - C5    
     5      9     14      1    1.2074e+02    5.6476e+02 ;      N - C3     - C8    
     5      9     15      1    1.2074e+02    5.6476e+02 ;      N - C3     - C9    
     6      7     11      1    1.2002e+02    5.3279e+02 ;      C - C1     - C5    
     6      8     16      1    1.1116e+02    5.0911e+02 ;      C - C2     - C10   
     6      8     20      1    1.1063e+02    3.6493e+02 ;      C - C2     - H     
     6      8     21      1    1.1063e+02    3.6493e+02 ;      C - C2     - H1    
     6     10     12      1    1.2002e+02    5.3279e+02 ;      C - C4     - C6    
     6     10     23      1    1.1988e+02    3.7572e+02 ;      C - C4     - H3    
     7      5      9      1    1.3028e+02    6.3396e+02 ;     C1 - N      - C3    
     7      5     22      1    1.1473e+02    4.8083e+02 ;     C1 - N      - H2    
     7      6      8      1    1.2083e+02    5.0827e+02 ;     C1 - C      - C2    
     7      6     10      1    1.2002e+02    5.3279e+02 ;     C1 - C      - C4    
     7     11     13      1    1.2002e+02    5.3279e+02 ;     C1 - C5     - C7    
     7     11     24      1    1.1988e+02    3.7572e+02 ;     C1 - C5     - H4    
     8      6     10      1    1.2083e+02    5.0827e+02 ;     C2 - C      - C4    
     9      5     22      1    1.1473e+02    4.8083e+02 ;     C3 - N      - H2    
     9     14     17      1    1.2002e+02    5.3279e+02 ;     C3 - C8     - C11   
     9     15     18      1    1.2002e+02    5.3279e+02 ;     C3 - C9     - C12   
    10     12     13      1    1.2002e+02    5.3279e+02 ;     C4 - C6     - C7    
    10     12     25      1    1.1988e+02    3.7572e+02 ;     C4 - C6     - H5    
    11     13     12      1    1.2002e+02    5.3279e+02 ;     C5 - C7     - C6    
    11     13     26      1    1.1988e+02    3.7572e+02 ;     C5 - C7     - H6    
    12     10     23      1    1.1988e+02    3.7572e+02 ;     C6 - C4     - H3    
    12     13     26      1    1.1988e+02    3.7572e+02 ;     C6 - C7     - H6    
    13     11     24      1    1.1988e+02    3.7572e+02 ;     C7 - C5     - H4    
    13     12     25      1    1.1988e+02    3.7572e+02 ;     C7 - C6     - H5    
    14      9     15      1    1.2002e+02    5.3279e+02 ;     C8 - C3     - C9    
    14     17     19      1    1.2002e+02    5.3279e+02 ;     C8 - C11    - C13   
    14     17     27      1    1.1988e+02    3.7572e+02 ;     C8 - C11    - H7    
    15     18     19      1    1.2002e+02    5.3279e+02 ;     C9 - C12    - C13   
    15     18     28      1    1.1988e+02    3.7572e+02 ;     C9 - C12    - H8    
    16      3     30      1    1.0654e+02    5.7287e+02 ;    C10 - O      - H10   
    16      8     20      1    1.0895e+02    3.6510e+02 ;    C10 - C2     - H     
    16      8     21      1    1.0895e+02    3.6510e+02 ;    C10 - C2     - H1    
    17     19     18      1    1.2002e+02    5.3279e+02 ;    C11 - C13    - C12   
    17     19     29      1    1.1988e+02    3.7572e+02 ;    C11 - C13    - H9    
    18     19     29      1    1.1988e+02    3.7572e+02 ;    C12 - C13    - H9    
    19     17     27      1    1.1988e+02    3.7572e+02 ;    C13 - C11    - H7    
    19     18     28      1    1.1988e+02    3.7572e+02 ;    C13 - C12    - H8    
    20      8     21      1    1.0773e+02    2.9957e+02 ;      H - C2     - H1    

[ dihedrals ] ; propers
; for gromacs 4.5 or higher, using funct 9
;    i      j      k      l   func   phase     kd      pn
     1     14      9      5      9   180.00  15.16700   2 ;     CL-    C8-    C3-     N
     1     14      9     15      9   180.00  15.16700   2 ;     CL-    C8-    C3-    C9
     1     14     17     19      9   180.00  15.16700   2 ;     CL-    C8-   C11-   C13
     1     14     17     27      9   180.00  15.16700   2 ;     CL-    C8-   C11-    H7
     2     15      9      5      9   180.00  15.16700   2 ;    CL1-    C9-    C3-     N
     2     15      9     14      9   180.00  15.16700   2 ;    CL1-    C9-    C3-    C8
     2     15     18     19      9   180.00  15.16700   2 ;    CL1-    C9-   C12-   C13
     2     15     18     28      9   180.00  15.16700   2 ;    CL1-    C9-   C12-    H8
     3     16      8      6      9   180.00   0.00000   2 ;      O-   C10-    C2-     C
     3     16      8     20      9   180.00   0.00000   2 ;      O-   C10-    C2-     H
     3     16      8     21      9   180.00   0.00000   2 ;      O-   C10-    C2-    H1
     4     16      3     30      9     0.00   7.94960   1 ;     O1-   C10-     O-   H10
     4     16      3     30      9   180.00   9.62320   2 ;     O1-   C10-     O-   H10
     4     16      8      6      9   180.00   0.00000   2 ;     O1-   C10-    C2-     C
     4     16      8     20      9     0.00  16.86152   1 ;     O1-   C10-    C2-     H
     4     16      8     20      9   180.00  15.31344   2 ;     O1-   C10-    C2-     H
     4     16      8     21      9     0.00  16.86152   1 ;     O1-   C10-    C2-    H1
     4     16      8     21      9   180.00  15.31344   2 ;     O1-   C10-    C2-    H1
     5      7      6      8      9   180.00  15.16700   2 ;      N-    C1-     C-    C2
     5      7      6     10      9   180.00  15.16700   2 ;      N-    C1-     C-    C4
     5      7     11     13      9   180.00  15.16700   2 ;      N-    C1-    C5-    C7
     5      7     11     24      9   180.00  15.16700   2 ;      N-    C1-    C5-    H4
     5      9     14     17      9   180.00  15.16700   2 ;      N-    C3-    C8-   C11
     5      9     15     18      9   180.00  15.16700   2 ;      N-    C3-    C9-   C12
     6      7      5      9      9   180.00   3.34720   2 ;      C-    C1-     N-    C3
     6      7      5     22      9   180.00   4.39320   2 ;      C-    C1-     N-    H2
     6      7     11     13      9   180.00  15.16700   2 ;      C-    C1-    C5-    C7
     6      7     11     24      9   180.00  15.16700   2 ;      C-    C1-    C5-    H4
     6     10     12     13      9   180.00  15.16700   2 ;      C-    C4-    C6-    C7
     6     10     12     25      9   180.00  15.16700   2 ;      C-    C4-    C6-    H5
     7      5      9     14      9   180.00   3.34720   2 ;     C1-     N-    C3-    C8
     7      5      9     15      9   180.00   3.34720   2 ;     C1-     N-    C3-    C9
     7      6      8     16      9     0.00   0.00000   0 ;     C1-     C-    C2-   C10
     7      6      8     20      9     0.00   0.00000   0 ;     C1-     C-    C2-     H
     7      6      8     21      9     0.00   0.00000   0 ;     C1-     C-    C2-    H1
     7      6     10     12      9   180.00  15.16700   2 ;     C1-     C-    C4-    C6
     7      6     10     23      9   180.00  15.16700   2 ;     C1-     C-    C4-    H3
     7     11     13     12      9   180.00  15.16700   2 ;     C1-    C5-    C7-    C6
     7     11     13     26      9   180.00  15.16700   2 ;     C1-    C5-    C7-    H6
     8      6      7     11      9   180.00  15.16700   2 ;     C2-     C-    C1-    C5
     8      6     10     12      9   180.00  15.16700   2 ;     C2-     C-    C4-    C6
     8      6     10     23      9   180.00  15.16700   2 ;     C2-     C-    C4-    H3
     8     16      3     30      9   180.00   7.53120   2 ;     C2-   C10-     O-   H10
     9      5      7     11      9   180.00   3.34720   2 ;     C3-     N-    C1-    C5
     9     14     17     19      9   180.00  15.16700   2 ;     C3-    C8-   C11-   C13
     9     14     17     27      9   180.00  15.16700   2 ;     C3-    C8-   C11-    H7
     9     15     18     19      9   180.00  15.16700   2 ;     C3-    C9-   C12-   C13
     9     15     18     28      9   180.00  15.16700   2 ;     C3-    C9-   C12-    H8
    10      6      7     11      9   180.00  15.16700   2 ;     C4-     C-    C1-    C5
    10      6      8     16      9     0.00   0.00000   0 ;     C4-     C-    C2-   C10
    10      6      8     20      9     0.00   0.00000   0 ;     C4-     C-    C2-     H
    10      6      8     21      9     0.00   0.00000   0 ;     C4-     C-    C2-    H1
    10     12     13     11      9   180.00  15.16700   2 ;     C4-    C6-    C7-    C5
    10     12     13     26      9   180.00  15.16700   2 ;     C4-    C6-    C7-    H6
    11      7      5     22      9   180.00   4.39320   2 ;     C5-    C1-     N-    H2
    11     13     12     25      9   180.00  15.16700   2 ;     C5-    C7-    C6-    H5
    12     13     11     24      9   180.00  15.16700   2 ;     C6-    C7-    C5-    H4
    13     12     10     23      9   180.00  15.16700   2 ;     C7-    C6-    C4-    H3
    14      9      5     22      9   180.00   4.39320   2 ;     C8-    C3-     N-    H2
    14      9     15     18      9   180.00  15.16700   2 ;     C8-    C3-    C9-   C12
    14     17     19     18      9   180.00  15.16700   2 ;     C8-   C11-   C13-   C12
    14     17     19     29      9   180.00  15.16700   2 ;     C8-   C11-   C13-    H9
    15      9      5     22      9   180.00   4.39320   2 ;     C9-    C3-     N-    H2
    15      9     14     17      9   180.00  15.16700   2 ;     C9-    C3-    C8-   C11
    15     18     19     17      9   180.00  15.16700   2 ;     C9-   C12-   C13-   C11
    15     18     19     29      9   180.00  15.16700   2 ;     C9-   C12-   C13-    H9
    17     19     18     28      9   180.00  15.16700   2 ;    C11-   C13-   C12-    H8
    18     19     17     27      9   180.00  15.16700   2 ;    C12-   C13-   C11-    H7
    23     10     12     25      9   180.00  15.16700   2 ;     H3-    C4-    C6-    H5
    24     11     13     26      9   180.00  15.16700   2 ;     H4-    C5-    C7-    H6
    25     12     13     26      9   180.00  15.16700   2 ;     H5-    C6-    C7-    H6
    27     17     19     29      9   180.00  15.16700   2 ;     H7-   C11-   C13-    H9
    28     18     19     29      9   180.00  15.16700   2 ;     H8-   C12-   C13-    H9

[ dihedrals ] ; impropers
; treated as propers in GROMACS to use correct AMBER analytical function
;    i      j      k      l   func   phase     kd      pn
     1     14     17      9      4   180.00   4.60240   2 ;     CL-    C8-   C11-    C3
     6     11      7      5      4   180.00   4.60240   2 ;      C-    C5-    C1-     N
     6     12     10     23      4   180.00   4.60240   2 ;      C-    C6-    C4-    H3
     7      9      5     22      4   180.00   4.60240   2 ;     C1-    C3-     N-    H2
     7     10      6      8      4   180.00   4.60240   2 ;     C1-    C4-     C-    C2
     7     13     11     24      4   180.00   4.60240   2 ;     C1-    C7-    C5-    H4
     8      4     16      3      4   180.00   4.60240   2 ;     C2-    O1-   C10-     O
     9     18     15      2      4   180.00   4.60240   2 ;     C3-   C12-    C9-   CL1
    10     13     12     25      4   180.00   4.60240   2 ;     C4-    C7-    C6-    H5
    11     12     13     26      4   180.00   4.60240   2 ;     C5-    C6-    C7-    H6
    14     15      9      5      4   180.00   4.60240   2 ;     C8-    C9-    C3-     N
    14     19     17     27      4   180.00   4.60240   2 ;     C8-   C13-   C11-    H7
    15     19     18     28      4   180.00   4.60240   2 ;     C9-   C13-   C12-    H8
    17     18     19     29      4   180.00   4.60240   2 ;    C11-   C12-   C13-    H9
