; metformin_GMX_OPLS.itp created by acpype (v: 2023.10.27) on Mon Feb  9 17:54:14 2026

; For OPLS atomtypes manual fine tuning
; AC_at:OPLS_at:OPLScode: Possible_Alternatives (see ffoplsaa.atp and ffoplsaanb.itp)
; nh:N2:opls_300: ['303']
; ne:x:opls_x: []
; n2:x:opls_x: []
; nv:x:opls_x: []
; c3:CT:opls_135: ['136', '137', '149', '157', '158', '206', '209', '210', '223B', '224B', '245', '246', '274', '283', '284', '285', '292', '292B', '293B', '296', '307', '308', '505']
; ce:x:opls_x: []
; c2:CR:opls_509: ['510']
; h1:HC:opls_140: []
; hn:H:opls_240: ['241', '290', '301', '304', '310', '504', '513']

[ moleculetype ]
;name            nrexcl
 metformin        3

[ atoms ]
;   nr  type  resi  res  atom  cgnr     charge      mass       ; qtot   bond_type
     1 opls_300     1   UNL     N    1    -0.719600     14.00670 ; qtot -0.720  N2  
     2 opls_x     1   UNL    N1    2    -0.856000      0.00000 ; qtot -1.576  x   
     3 opls_x     1   UNL    N2    3    -0.871100      0.00000 ; qtot -2.447  x   
     4 opls_x     1   UNL    N3    4    -0.918800      0.00000 ; qtot -3.365  x   
     5 opls_x     1   UNL    N4    5    -0.918800      0.00000 ; qtot -4.284  x   
     6 opls_135     1   UNL     C    6     0.161600     12.01100 ; qtot -4.123  CT  
     7 opls_135     1   UNL    C1    7     0.161600     12.01100 ; qtot -3.961  CT  
     8 opls_x     1   UNL    C2    8     0.820200      0.00000 ; qtot -3.141  x   
     9 opls_509     1   UNL    C3    9     0.846100     12.01100 ; qtot -2.295  CR  
    10 opls_140     1   UNL     H   10     0.036200      1.00800 ; qtot -2.259  HC  
    11 opls_140     1   UNL    H1   11     0.036200      1.00800 ; qtot -2.222  HC  
    12 opls_140     1   UNL    H2   12     0.036200      1.00800 ; qtot -2.186  HC  
    13 opls_140     1   UNL    H3   13     0.036200      1.00800 ; qtot -2.150  HC  
    14 opls_140     1   UNL    H4   14     0.036200      1.00800 ; qtot -2.114  HC  
    15 opls_140     1   UNL    H5   15     0.036200      1.00800 ; qtot -2.078  HC  
    16 opls_240     1   UNL    H6   16     0.408400      1.00800 ; qtot -1.669  H   
    17 opls_240     1   UNL    H7   17     0.417300      1.00800 ; qtot -1.252  H   
    18 opls_240     1   UNL    H8   18     0.417300      1.00800 ; qtot -0.835  H   
    19 opls_240     1   UNL    H9   19     0.417300      1.00800 ; qtot -0.417  H   
    20 opls_240     1   UNL   H10   20     0.417300      1.00800 ; qtot -0.000  H   

[ bonds ]
;   ai     aj funct   r             k
     1      6   1 ;    1.4613e-01    2.1499e+05 ;      N - C          N2 - CT    
     1      7   1 ;    1.4613e-01    2.1499e+05 ;      N - C1         N2 - CT    
     1      8   1 ;    1.3862e-01    2.7520e+05 ;      N - C2         N2 - x     
     2      8   1 ;    1.3920e-01    2.6988e+05 ;     N1 - C2          x - x     
     2      9   1 ;    1.2934e-01    3.8061e+05 ;     N1 - C3          x - CR    
     3      8   1 ;    1.2878e-01    3.8843e+05 ;     N2 - C2          x - x     
     3     16   1 ;    1.0221e-01    3.8040e+05 ;     N2 - H6          x - H     
     4      9   1 ;    1.3901e-01    2.7161e+05 ;     N3 - C3          x - CR    
     4     17   1 ;    1.0114e-01    3.9961e+05 ;     N3 - H7          x - H     
     4     18   1 ;    1.0114e-01    3.9961e+05 ;     N3 - H8          x - H     
     5      9   1 ;    1.3901e-01    2.7161e+05 ;     N4 - C3          x - CR    
     5     19   1 ;    1.0114e-01    3.9961e+05 ;     N4 - H9          x - H     
     5     20   1 ;    1.0114e-01    3.9961e+05 ;     N4 - H10         x - H     
     6     10   1 ;    1.0969e-01    2.8804e+05 ;      C - H          CT - HC    
     6     11   1 ;    1.0969e-01    2.8804e+05 ;      C - H1         CT - HC    
     6     12   1 ;    1.0969e-01    2.8804e+05 ;      C - H2         CT - HC    
     7     13   1 ;    1.0969e-01    2.8804e+05 ;     C1 - H3         CT - HC    
     7     14   1 ;    1.0969e-01    2.8804e+05 ;     C1 - H4         CT - HC    
     7     15   1 ;    1.0969e-01    2.8804e+05 ;     C1 - H5         CT - HC    

[ pairs ]
;   ai     aj    funct
     1      9      1 ;      N - C3    
     1     16      1 ;      N - H6    
     2     16      1 ;     N1 - H6    
     2     17      1 ;     N1 - H7    
     2     18      1 ;     N1 - H8    
     2     19      1 ;     N1 - H9    
     2     20      1 ;     N1 - H10   
     3      9      1 ;     N2 - C3    
     4      8      1 ;     N3 - C2    
     4     19      1 ;     N3 - H9    
     4     20      1 ;     N3 - H10   
     5      8      1 ;     N4 - C2    
     5     17      1 ;     N4 - H7    
     5     18      1 ;     N4 - H8    
     6      2      1 ;      C - N1    
     6      3      1 ;      C - N2    
     6     13      1 ;      C - H3    
     6     14      1 ;      C - H4    
     6     15      1 ;      C - H5    
     7      2      1 ;     C1 - N1    
     7      3      1 ;     C1 - N2    
     7     10      1 ;     C1 - H     
     7     11      1 ;     C1 - H1    
     7     12      1 ;     C1 - H2    
     8     10      1 ;     C2 - H     
     8     11      1 ;     C2 - H1    
     8     12      1 ;     C2 - H2    
     8     13      1 ;     C2 - H3    
     8     14      1 ;     C2 - H4    
     8     15      1 ;     C2 - H5    

[ angles ]
;   ai     aj     ak    funct   theta         cth
     1      6     10      1 ;    1.0968e+02    4.0141e+02 ;      N - C    - H        N2 -   CT - HC  
     1      6     11      1 ;    1.0968e+02    4.0141e+02 ;      N - C    - H1       N2 -   CT - HC  
     1      6     12      1 ;    1.0968e+02    4.0141e+02 ;      N - C    - H2       N2 -   CT - HC  
     1      7     13      1 ;    1.0968e+02    4.0141e+02 ;      N - C1   - H3       N2 -   CT - HC  
     1      7     14      1 ;    1.0968e+02    4.0141e+02 ;      N - C1   - H4       N2 -   CT - HC  
     1      7     15      1 ;    1.0968e+02    4.0141e+02 ;      N - C1   - H5       N2 -   CT - HC  
     1      8      2      1 ;    1.1652e+02    6.1354e+02 ;      N - C2   - N1       N2 -    x - x   
     1      8      3      1 ;    1.2198e+02    6.2132e+02 ;      N - C2   - N2       N2 -    x - x   
     2      8      3      1 ;    1.2604e+02    6.0969e+02 ;     N1 - C2   - N2        x -    x - x   
     2      9      4      1 ;    1.2081e+02    6.2216e+02 ;     N1 - C3   - N3        x -   CR - x   
     2      9      5      1 ;    1.2081e+02    6.2216e+02 ;     N1 - C3   - N4        x -   CR - x   
     4      9      5      1 ;    1.1646e+02    6.1329e+02 ;     N3 - C3   - N4        x -   CR - x   
     6      1      7      1 ;    1.1656e+02    6.3957e+02 ;      C - N    - C1       CT -   N2 - CT  
     6      1      8      1 ;    1.2107e+02    6.4316e+02 ;      C - N    - C2       CT -   N2 - x   
     7      1      8      1 ;    1.2107e+02    6.4316e+02 ;     C1 - N    - C2       CT -   N2 - x   
     8      2      9      1 ;    1.1580e+02    6.9638e+02 ;     C2 - N1   - C3        x -    x - CR  
     8      3     16      1 ;    1.1098e+02    5.2183e+02 ;     C2 - N2   - H6        x -    x - H   
     9      4     17      1 ;    1.1505e+02    4.8166e+02 ;     C3 - N3   - H7       CR -    x - H   
     9      4     18      1 ;    1.1505e+02    4.8166e+02 ;     C3 - N3   - H8       CR -    x - H   
     9      5     19      1 ;    1.1505e+02    4.8166e+02 ;     C3 - N4   - H9       CR -    x - H   
     9      5     20      1 ;    1.1505e+02    4.8166e+02 ;     C3 - N4   - H10      CR -    x - H   
    10      6     11      1 ;    1.0855e+02    2.9824e+02 ;      H - C    - H1       HC -   CT - HC  
    10      6     12      1 ;    1.0855e+02    2.9824e+02 ;      H - C    - H2       HC -   CT - HC  
    11      6     12      1 ;    1.0855e+02    2.9824e+02 ;     H1 - C    - H2       HC -   CT - HC  
    13      7     14      1 ;    1.0855e+02    2.9824e+02 ;     H3 - C1   - H4       HC -   CT - HC  
    13      7     15      1 ;    1.0855e+02    2.9824e+02 ;     H3 - C1   - H5       HC -   CT - HC  
    14      7     15      1 ;    1.0855e+02    2.9824e+02 ;     H4 - C1   - H5       HC -   CT - HC  
    17      4     18      1 ;    1.1528e+02    3.8794e+02 ;     H7 - N3   - H8        H -    x - H   
    19      5     20      1 ;    1.1528e+02    3.8794e+02 ;     H9 - N4   - H10       H -    x - H   

[ dihedrals ] ; propers
; for gromacs 4.5 or higher, using funct 9
;    i      j      k      l   func   phase     kd      pn
     1      8      2      9      9 ;   180.00   3.34720   2 ;      N-    C2-    N1-    C3
     1      8      3     16      9 ;   180.00   3.34720   2 ;      N-    C2-    N2-    H6
     2      8      3     16      9 ;   180.00   3.34720   2 ;     N1-    C2-    N2-    H6
     2      9      4     17      9 ;   180.00   2.82420   2 ;     N1-    C3-    N3-    H7
     2      9      4     18      9 ;   180.00   2.82420   2 ;     N1-    C3-    N3-    H8
     2      9      5     19      9 ;   180.00   2.82420   2 ;     N1-    C3-    N4-    H9
     2      9      5     20      9 ;   180.00   2.82420   2 ;     N1-    C3-    N4-   H10
     3      8      2      9      9 ;   180.00   3.34720   2 ;     N2-    C2-    N1-    C3
     4      9      2      8      9 ;   180.00  17.36360   2 ;     N3-    C3-    N1-    C2
     4      9      5     19      9 ;   180.00   2.82420   2 ;     N3-    C3-    N4-    H9
     4      9      5     20      9 ;   180.00   2.82420   2 ;     N3-    C3-    N4-   H10
     5      9      2      8      9 ;   180.00  17.36360   2 ;     N4-    C3-    N1-    C2
     5      9      4     17      9 ;   180.00   2.82420   2 ;     N4-    C3-    N3-    H7
     5      9      4     18      9 ;   180.00   2.82420   2 ;     N4-    C3-    N3-    H8
     6      1      7     13      9 ;     0.00   0.00000   0 ;      C-     N-    C1-    H3
     6      1      7     14      9 ;     0.00   0.00000   0 ;      C-     N-    C1-    H4
     6      1      7     15      9 ;     0.00   0.00000   0 ;      C-     N-    C1-    H5
     6      1      8      2      9 ;   180.00   4.39320   2 ;      C-     N-    C2-    N1
     6      1      8      3      9 ;   180.00   4.39320   2 ;      C-     N-    C2-    N2
     7      1      6     10      9 ;     0.00   0.00000   0 ;     C1-     N-     C-     H
     7      1      6     11      9 ;     0.00   0.00000   0 ;     C1-     N-     C-    H1
     7      1      6     12      9 ;     0.00   0.00000   0 ;     C1-     N-     C-    H2
     7      1      8      2      9 ;   180.00   4.39320   2 ;     C1-     N-    C2-    N1
     7      1      8      3      9 ;   180.00   4.39320   2 ;     C1-     N-    C2-    N2
     8      1      6     10      9 ;     0.00   0.00000   0 ;     C2-     N-     C-     H
     8      1      6     11      9 ;     0.00   0.00000   0 ;     C2-     N-     C-    H1
     8      1      6     12      9 ;     0.00   0.00000   0 ;     C2-     N-     C-    H2
     8      1      7     13      9 ;     0.00   0.00000   0 ;     C2-     N-    C1-    H3
     8      1      7     14      9 ;     0.00   0.00000   0 ;     C2-     N-    C1-    H4
     8      1      7     15      9 ;     0.00   0.00000   0 ;     C2-     N-    C1-    H5

[ dihedrals ] ; impropers
; treated as propers in GROMACS to use correct AMBER analytical function
;    i      j      k      l   func   phase     kd      pn
     1      8      2      3      4 ;   180.00   4.60240   2 ;      N-    C2-    N1-    N2
     2      4      9      5      4 ;   180.00   4.60240   2 ;     N1-    N3-    C3-    N4
     8      1      7      6      4 ;   180.00   4.60240   2 ;     C2-     N-    C1-     C
     9     17      4     18      4 ;   180.00   4.60240   2 ;     C3-    H7-    N3-    H8
     9     19      5     20      4 ;   180.00   4.60240   2 ;     C3-    H9-    N4-   H10
