metformin_GMX.gro created by acpype (v: 2023.10.27) on Mon Feb  9 17:54:14 2026
 20
    1  UNL    N    1  -0.152  -0.036  -0.008
    1  UNL   N1    2   0.072   0.022  -0.082
    1  UNL   N2    3  -0.066   0.187  -0.016
    1  UNL   N3    4   0.290  -0.045  -0.034
    1  UNL   N4    5   0.152  -0.003   0.144
    1  UNL    C    6  -0.130  -0.178  -0.031
    1  UNL   C1    7  -0.278   0.001   0.055
    1  UNL   C2    8  -0.053   0.059  -0.034
    1  UNL   C3    9   0.164  -0.007   0.006
    1  UNL    H   10  -0.069  -0.195  -0.120
    1  UNL   H1   11  -0.224  -0.231  -0.047
    1  UNL   H2   12  -0.079  -0.223   0.055
    1  UNL   H3   13  -0.341  -0.087   0.076
    1  UNL   H4   14  -0.335   0.067  -0.010
    1  UNL   H5   15  -0.260   0.051   0.151
    1  UNL   H6   16  -0.160   0.209   0.019
    1  UNL   H7   17   0.363  -0.067   0.034
    1  UNL   H8   18   0.314  -0.052  -0.132
    1  UNL   H9   19   0.065   0.023   0.189
    1  UNL  H10   20   0.230  -0.027   0.204
   14.06400     8.80800     6.71200
