%VERSION  VERSION_STAMP = V0001.000  DATE = 02/09/26  17:54:21                  
%FLAG TITLE                                                                     
%FORMAT(20a4)                                                                   
4091                                                                            
%FLAG POINTERS                                                                  
%FORMAT(10I8)                                                                   
      20       7      11       8      19      10      24      11       0       0
      83       1       8      10      11       9      13       6       9       0
       0       0       0       0       0       0       0       0      20       0
       0
%FLAG ATOM_NAME                                                                 
%FORMAT(20a4)                                                                   
N   N1  N2  N3  N4  C   C1  C2  C3  H   H1  H2  H3  H4  H5  H6  H7  H8  H9  H10 
%FLAG CHARGE                                                                    
%FORMAT(5E16.8)                                                                 
 -1.31127671E+01 -1.55982888E+01 -1.58734455E+01 -1.67517604E+01 -1.67517604E+01
  2.94472368E+00  2.94472368E+00  1.49459305E+01  1.54178880E+01  6.59647260E-01
  6.59647260E-01  6.59647260E-01  6.59647260E-01  6.59647260E-01  6.59647260E-01
  7.44198732E+00  7.60416579E+00  7.60416579E+00  7.60416579E+00  7.60416579E+00
%FLAG ATOMIC_NUMBER                                                             
%FORMAT(10I8)                                                                   
       7       7       7       7       7       6       6       6       6       1
       1       1       1       1       1       1       1       1       1       1
%FLAG MASS                                                                      
%FORMAT(5E16.8)                                                                 
  1.40100000E+01  1.40100000E+01  1.40100000E+01  1.40100000E+01  1.40100000E+01
  1.20100000E+01  1.20100000E+01  1.20100000E+01  1.20100000E+01  1.00800000E+00
  1.00800000E+00  1.00800000E+00  1.00800000E+00  1.00800000E+00  1.00800000E+00
  1.00800000E+00  1.00800000E+00  1.00800000E+00  1.00800000E+00  1.00800000E+00
%FLAG ATOM_TYPE_INDEX                                                           
%FORMAT(10I8)                                                                   
       1       2       2       3       3       4       4       5       5       6
       6       6       6       6       6       7       7       7       7       7
%FLAG NUMBER_EXCLUDED_ATOMS                                                     
%FORMAT(10I8)                                                                   
      13      12       5       7       6       8       7       8       4       2
       1       1       2       1       1       1       1       1       1       1
%FLAG NONBONDED_PARM_INDEX                                                      
%FORMAT(10I8)                                                                   
       1       2       4       7      11      16      22       2       3       5
       8      12      17      23       4       5       6       9      13      18
      24       7       8       9      10      14      19      25      11      12
      13      14      15      20      26      16      17      18      19      20
      21      27      22      23      24      25      26      27      28
%FLAG RESIDUE_LABEL                                                             
%FORMAT(20a4)                                                                   
UNL 
%FLAG RESIDUE_POINTER                                                           
%FORMAT(10I8)                                                                   
       1
%FLAG BOND_FORCE_CONSTANT                                                       
%FORMAT(5E16.8)                                                                 
  2.56920000E+02  3.28870000E+02  3.22510000E+02  4.54840000E+02  4.64180000E+02
  4.54590000E+02  3.24580000E+02  4.77540000E+02  3.44220000E+02
%FLAG BOND_EQUIL_VALUE                                                          
%FORMAT(5E16.8)                                                                 
  1.46130000E+00  1.38620000E+00  1.39200000E+00  1.29340000E+00  1.28780000E+00
  1.02210000E+00  1.39010000E+00  1.01140000E+00  1.09690000E+00
%FLAG ANGLE_FORCE_CONSTANT                                                      
%FORMAT(5E16.8)                                                                 
  4.79700000E+01  7.33200000E+01  7.42500000E+01  7.28600000E+01  7.43500000E+01
  7.32900000E+01  7.64300000E+01  7.68600000E+01  8.32200000E+01  6.23600000E+01
  5.75600000E+01  3.56400000E+01  4.63600000E+01
%FLAG ANGLE_EQUIL_VALUE                                                         
%FORMAT(5E16.8)                                                                 
  1.91427794E+00  2.03365852E+00  2.12895353E+00  2.19981393E+00  2.10853317E+00
  2.03261132E+00  2.03435665E+00  2.11307103E+00  2.02109214E+00  1.93696723E+00
  2.00800217E+00  1.89455572E+00  2.01201642E+00
%FLAG DIHEDRAL_FORCE_CONSTANT                                                   
%FORMAT(5E16.8)                                                                 
  8.00000000E-01  1.05000000E+00  6.75000000E-01  4.15000000E+00  0.00000000E+00
  1.10000000E+00
%FLAG DIHEDRAL_PERIODICITY                                                      
%FORMAT(5E16.8)                                                                 
  2.00000000E+00  2.00000000E+00  2.00000000E+00  2.00000000E+00  2.00000000E+00
  2.00000000E+00
%FLAG DIHEDRAL_PHASE                                                            
%FORMAT(5E16.8)                                                                 
  3.14159400E+00  3.14159400E+00  3.14159400E+00  3.14159400E+00  0.00000000E+00
  3.14159400E+00
%FLAG SCEE_SCALE_FACTOR                                                         
%FORMAT(5E16.8)                                                                 
  1.20000000E+00  1.20000000E+00  1.20000000E+00  1.20000000E+00  1.20000000E+00
  0.00000000E+00
%FLAG SCNB_SCALE_FACTOR                                                         
%FORMAT(5E16.8)                                                                 
  2.00000000E+00  2.00000000E+00  2.00000000E+00  2.00000000E+00  2.00000000E+00
  0.00000000E+00
%FLAG SOLTY                                                                     
%FORMAT(5E16.8)                                                                 
  0.00000000E+00  0.00000000E+00  0.00000000E+00  0.00000000E+00  0.00000000E+00
  0.00000000E+00  0.00000000E+00  0.00000000E+00  0.00000000E+00
%FLAG LENNARD_JONES_ACOEF                                                       
%FORMAT(5E16.8)                                                                 
  9.54790629E+05  9.05243612E+05  8.49322032E+05  9.59073084E+05  9.00584118E+05
  9.54875571E+05  9.93125065E+05  9.31115275E+05  9.87370297E+05  1.02073671E+06
  8.17329084E+05  7.69642101E+05  8.15855629E+05  8.43969952E+05  6.96551276E+05
  6.37258620E+04  6.34160397E+04  6.69267216E+04  6.97998263E+04  5.63013422E+04
  3.39005767E+03  1.79157166E+03  2.01475241E+03  2.10567903E+03  2.23577481E+03
  1.71458823E+03  5.24570081E+01  1.34728399E-01
%FLAG LENNARD_JONES_BCOEF                                                       
%FORMAT(5E16.8)                                                                 
  9.06156687E+02  7.17661669E+02  5.65406768E+02  7.71560468E+02  6.08126668E+02
  6.54052181E+02  7.77671659E+02  6.12468585E+02  6.58763033E+02  6.63431737E+02
  6.90283231E+02  5.44830041E+02  5.85909304E+02  5.90251928E+02  5.24668528E+02
  1.30560951E+02  1.05935811E+02  1.13671113E+02  1.14981426E+02  1.01040256E+02
  1.67944276E+01  1.82287422E+01  1.57231024E+01  1.67892226E+01  1.71355763E+01
  1.46824710E+01  1.73959275E+00  7.34107347E-02
%FLAG BONDS_INC_HYDROGEN                                                        
%FORMAT(10I8)                                                                   
       6      45       6       9      48       8       9      51       8      12
      54       8      12      57       8      15      27       9      15      30
       9      15      33       9      18      36       9      18      39       9
      18      42       9
%FLAG BONDS_WITHOUT_HYDROGEN                                                    
%FORMAT(10I8)                                                                   
       0      15       1       0      18       1       0      21       2       3
      21       3       3      24       4       6      21       5       9      24
       7      12      24       7
%FLAG ANGLES_INC_HYDROGEN                                                       
%FORMAT(10I8)                                                                   
       0      15      27       1       0      15      30       1       0      15
      33       1       0      18      36       1       0      18      39       1
       0      18      42       1      21       6      45      10      24       9
      48      11      24       9      51      11      24      12      54      11
      24      12      57      11      27      15      30      12      27      15
      33      12      30      15      33      12      36      18      39      12
      36      18      42      12      39      18      42      12      48       9
      51      13      54      12      57      13
%FLAG ANGLES_WITHOUT_HYDROGEN                                                   
%FORMAT(10I8)                                                                   
       0      21       3       2       0      21       6       3       3      21
       6       4       3      24       9       5       3      24      12       5
       9      24      12       6      15       0      18       7      15       0
      21       8      18       0      21       8      21       3      24       9
%FLAG DIHEDRALS_INC_HYDROGEN                                                    
%FORMAT(10I8)                                                                   
       0      21       6      45       1       3      21       6      45       1
       3      24       9      48       3       3      24       9      51       3
       3      24      12      54       3       3      24      12      57       3
       9      24      12      54       3       9      24      12      57       3
      12      24       9      48       3      12      24       9      51       3
      15       0      18      36       5      15       0      18      39       5
      15       0      18      42       5      18       0      15      27       5
      18       0      15      30       5      18       0      15      33       5
      21       0      15      27       5      21       0      15      30       5
      21       0      15      33       5      21       0      18      36       5
      21       0      18      39       5      21       0      18      42       5
      24      48      -9     -51       6      24      54     -12     -57       6
%FLAG DIHEDRALS_WITHOUT_HYDROGEN                                                
%FORMAT(10I8)                                                                   
       0      21       3      24       1      15       0      21       3       2
      18       0      21       3       2      15       0      21       6       2
      18       0      21       6       2       6      21       3      24       1
       9      24       3      21       4      12      24       3      21       4
      21       0     -18     -15       6       0      21      -3      -6       6
       3       9     -24     -12       6
%FLAG EXCLUDED_ATOMS_LIST                                                       
%FORMAT(10I8)                                                                   
       2       3       6       7       8       9      10      11      12      13
      14      15      16       3       4       5       6       7       8       9
      16      17      18      19      20       6       7       8       9      16
       5       8       9      17      18      19      20       8       9      17
      18      19      20       7       8      10      11      12      13      14
      15       8      10      11      12      13      14      15       9      10
      11      12      13      14      15      16      17      18      19      20
      11      12      12       0      14      15      15       0       0      18
       0      20       0
%FLAG HBOND_ACOEF                                                               
%FORMAT(5E16.8)                                                                 

%FLAG HBOND_BCOEF                                                               
%FORMAT(5E16.8)                                                                 

%FLAG HBCUT                                                                     
%FORMAT(5E16.8)                                                                 

%FLAG AMBER_ATOM_TYPE                                                           
%FORMAT(20a4)                                                                   
nh  ne  n2  nv  nv  c3  c3  ce  c2  h1  h1  h1  h1  h1  h1  hn  hn  hn  hn  hn  
%FLAG TREE_CHAIN_CLASSIFICATION                                                 
%FORMAT(20a4)                                                                   
BLA BLA BLA BLA BLA BLA BLA BLA BLA BLA BLA BLA BLA BLA BLA BLA BLA BLA BLA BLA 
%FLAG JOIN_ARRAY                                                                
%FORMAT(10I8)                                                                   
       0       0       0       0       0       0       0       0       0       0
       0       0       0       0       0       0       0       0       0       0
%FLAG IROTAT                                                                    
%FORMAT(10I8)                                                                   
       0       0       0       0       0       0       0       0       0       0
       0       0       0       0       0       0       0       0       0       0
%FLAG RADIUS_SET                                                                
%FORMAT(1a80)                                                                   
modified Bondi radii (mbondi)                                                   
%FLAG RADII                                                                     
%FORMAT(5E16.8)                                                                 
  1.55000000E+00  1.55000000E+00  1.55000000E+00  1.55000000E+00  1.55000000E+00
  1.70000000E+00  1.70000000E+00  1.70000000E+00  1.70000000E+00  1.30000000E+00
  1.30000000E+00  1.30000000E+00  1.30000000E+00  1.30000000E+00  1.30000000E+00
  1.30000000E+00  1.30000000E+00  1.30000000E+00  1.30000000E+00  1.30000000E+00
%FLAG SCREEN                                                                    
%FORMAT(5E16.8)                                                                 
  7.90000000E-01  7.90000000E-01  7.90000000E-01  7.90000000E-01  7.90000000E-01
  7.20000000E-01  7.20000000E-01  7.20000000E-01  7.20000000E-01  8.50000000E-01
  8.50000000E-01  8.50000000E-01  8.50000000E-01  8.50000000E-01  8.50000000E-01
  8.50000000E-01  8.50000000E-01  8.50000000E-01  8.50000000E-01  8.50000000E-01
%FLAG IPOL                                                                      
%FORMAT(1I8)                                                                    
       0
