4091
    20
  -1.5160000  -0.3600000  -0.0790000   0.7170000   0.2150000  -0.8190000
  -0.6600000   1.8740000  -0.1620000   2.9010000  -0.4480000  -0.3360000
   1.5200000  -0.0300000   1.4350000  -1.2980000  -1.7840000  -0.3080000
  -2.7800000   0.0050000   0.5510000  -0.5260000   0.5930000  -0.3450000
   1.6420000  -0.0660000   0.0630000  -0.6870000  -1.9540000  -1.2010000
  -2.2430000  -2.3140000  -0.4670000  -0.7920000  -2.2290000   0.5540000
  -3.4060000  -0.8700000   0.7570000  -3.3490000   0.6740000  -0.1020000
  -2.5980000   0.5080000   1.5070000  -1.5950000   2.0900000   0.1920000
   3.6260000  -0.6690000   0.3370000   3.1390000  -0.5190000  -1.3190000
   0.6520000   0.2310000   1.8890000   2.3010000  -0.2680000   2.0370000
