; metformin_GMX.itp created by acpype (v: 2023.10.27) on Mon Feb  9 17:54:14 2026

[ atomtypes ]
;name   bond_type     mass     charge   ptype   sigma         epsilon       Amb
 nh       nh          0.00000  0.00000   A     3.18995e-01   8.99560e-01 ; 1.79  0.2150
 ne       ne          0.00000  0.00000   A     3.38417e-01   3.93714e-01 ; 1.90  0.0941
 n2       n2          0.00000  0.00000   A     3.38417e-01   3.93714e-01 ; 1.90  0.0941
 nv       nv          0.00000  0.00000   A     3.36813e-01   4.68608e-01 ; 1.89  0.1120
 c3       c3          0.00000  0.00000   A     3.39771e-01   4.51035e-01 ; 1.91  0.1078
 ce       ce          0.00000  0.00000   A     3.31521e-01   4.13379e-01 ; 1.86  0.0988
 c2       c2          0.00000  0.00000   A     3.31521e-01   4.13379e-01 ; 1.86  0.0988
 h1       h1          0.00000  0.00000   A     2.42200e-01   8.70272e-02 ; 1.36  0.0208
 hn       hn          0.00000  0.00000   A     1.10650e-01   4.18400e-02 ; 0.62  0.0100

[ moleculetype ]
;name            nrexcl
 metformin        3

[ atoms ]
;   nr  type  resi  res  atom  cgnr     charge      mass       ; qtot   bond_type
     1   nh     1   UNL     N    1    -0.719600     14.01000 ; qtot -0.720
     2   ne     1   UNL    N1    2    -0.856000     14.01000 ; qtot -1.576
     3   n2     1   UNL    N2    3    -0.871100     14.01000 ; qtot -2.447
     4   nv     1   UNL    N3    4    -0.918800     14.01000 ; qtot -3.365
     5   nv     1   UNL    N4    5    -0.918800     14.01000 ; qtot -4.284
     6   c3     1   UNL     C    6     0.161600     12.01000 ; qtot -4.123
     7   c3     1   UNL    C1    7     0.161600     12.01000 ; qtot -3.961
     8   ce     1   UNL    C2    8     0.820200     12.01000 ; qtot -3.141
     9   c2     1   UNL    C3    9     0.846100     12.01000 ; qtot -2.295
    10   h1     1   UNL     H   10     0.036200      1.00800 ; qtot -2.259
    11   h1     1   UNL    H1   11     0.036200      1.00800 ; qtot -2.222
    12   h1     1   UNL    H2   12     0.036200      1.00800 ; qtot -2.186
    13   h1     1   UNL    H3   13     0.036200      1.00800 ; qtot -2.150
    14   h1     1   UNL    H4   14     0.036200      1.00800 ; qtot -2.114
    15   h1     1   UNL    H5   15     0.036200      1.00800 ; qtot -2.078
    16   hn     1   UNL    H6   16     0.408400      1.00800 ; qtot -1.669
    17   hn     1   UNL    H7   17     0.417300      1.00800 ; qtot -1.252
    18   hn     1   UNL    H8   18     0.417300      1.00800 ; qtot -0.835
    19   hn     1   UNL    H9   19     0.417300      1.00800 ; qtot -0.417
    20   hn     1   UNL   H10   20     0.417300      1.00800 ; qtot -0.000

[ bonds ]
;   ai     aj funct   r             k
     1      6   1    1.4613e-01    2.1499e+05 ;      N - C     
     1      7   1    1.4613e-01    2.1499e+05 ;      N - C1    
     1      8   1    1.3862e-01    2.7520e+05 ;      N - C2    
     2      8   1    1.3920e-01    2.6988e+05 ;     N1 - C2    
     2      9   1    1.2934e-01    3.8061e+05 ;     N1 - C3    
     3      8   1    1.2878e-01    3.8843e+05 ;     N2 - C2    
     3     16   1    1.0221e-01    3.8040e+05 ;     N2 - H6    
     4      9   1    1.3901e-01    2.7161e+05 ;     N3 - C3    
     4     17   1    1.0114e-01    3.9961e+05 ;     N3 - H7    
     4     18   1    1.0114e-01    3.9961e+05 ;     N3 - H8    
     5      9   1    1.3901e-01    2.7161e+05 ;     N4 - C3    
     5     19   1    1.0114e-01    3.9961e+05 ;     N4 - H9    
     5     20   1    1.0114e-01    3.9961e+05 ;     N4 - H10   
     6     10   1    1.0969e-01    2.8804e+05 ;      C - H     
     6     11   1    1.0969e-01    2.8804e+05 ;      C - H1    
     6     12   1    1.0969e-01    2.8804e+05 ;      C - H2    
     7     13   1    1.0969e-01    2.8804e+05 ;     C1 - H3    
     7     14   1    1.0969e-01    2.8804e+05 ;     C1 - H4    
     7     15   1    1.0969e-01    2.8804e+05 ;     C1 - H5    

[ pairs ]
;   ai     aj    funct
     1      9      1 ;      N - C3    
     1     16      1 ;      N - H6    
     2     16      1 ;     N1 - H6    
     2     17      1 ;     N1 - H7    
     2     18      1 ;     N1 - H8    
     2     19      1 ;     N1 - H9    
     2     20      1 ;     N1 - H10   
     3      9      1 ;     N2 - C3    
     4      8      1 ;     N3 - C2    
     4     19      1 ;     N3 - H9    
     4     20      1 ;     N3 - H10   
     5      8      1 ;     N4 - C2    
     5     17      1 ;     N4 - H7    
     5     18      1 ;     N4 - H8    
     6      2      1 ;      C - N1    
     6      3      1 ;      C - N2    
     6     13      1 ;      C - H3    
     6     14      1 ;      C - H4    
     6     15      1 ;      C - H5    
     7      2      1 ;     C1 - N1    
     7      3      1 ;     C1 - N2    
     7     10      1 ;     C1 - H     
     7     11      1 ;     C1 - H1    
     7     12      1 ;     C1 - H2    
     8     10      1 ;     C2 - H     
     8     11      1 ;     C2 - H1    
     8     12      1 ;     C2 - H2    
     8     13      1 ;     C2 - H3    
     8     14      1 ;     C2 - H4    
     8     15      1 ;     C2 - H5    

[ angles ]
;   ai     aj     ak    funct   theta         cth
     1      6     10      1    1.0968e+02    4.0141e+02 ;      N - C      - H     
     1      6     11      1    1.0968e+02    4.0141e+02 ;      N - C      - H1    
     1      6     12      1    1.0968e+02    4.0141e+02 ;      N - C      - H2    
     1      7     13      1    1.0968e+02    4.0141e+02 ;      N - C1     - H3    
     1      7     14      1    1.0968e+02    4.0141e+02 ;      N - C1     - H4    
     1      7     15      1    1.0968e+02    4.0141e+02 ;      N - C1     - H5    
     1      8      2      1    1.1652e+02    6.1354e+02 ;      N - C2     - N1    
     1      8      3      1    1.2198e+02    6.2132e+02 ;      N - C2     - N2    
     2      8      3      1    1.2604e+02    6.0969e+02 ;     N1 - C2     - N2    
     2      9      4      1    1.2081e+02    6.2216e+02 ;     N1 - C3     - N3    
     2      9      5      1    1.2081e+02    6.2216e+02 ;     N1 - C3     - N4    
     4      9      5      1    1.1646e+02    6.1329e+02 ;     N3 - C3     - N4    
     6      1      7      1    1.1656e+02    6.3957e+02 ;      C - N      - C1    
     6      1      8      1    1.2107e+02    6.4316e+02 ;      C - N      - C2    
     7      1      8      1    1.2107e+02    6.4316e+02 ;     C1 - N      - C2    
     8      2      9      1    1.1580e+02    6.9638e+02 ;     C2 - N1     - C3    
     8      3     16      1    1.1098e+02    5.2183e+02 ;     C2 - N2     - H6    
     9      4     17      1    1.1505e+02    4.8166e+02 ;     C3 - N3     - H7    
     9      4     18      1    1.1505e+02    4.8166e+02 ;     C3 - N3     - H8    
     9      5     19      1    1.1505e+02    4.8166e+02 ;     C3 - N4     - H9    
     9      5     20      1    1.1505e+02    4.8166e+02 ;     C3 - N4     - H10   
    10      6     11      1    1.0855e+02    2.9824e+02 ;      H - C      - H1    
    10      6     12      1    1.0855e+02    2.9824e+02 ;      H - C      - H2    
    11      6     12      1    1.0855e+02    2.9824e+02 ;     H1 - C      - H2    
    13      7     14      1    1.0855e+02    2.9824e+02 ;     H3 - C1     - H4    
    13      7     15      1    1.0855e+02    2.9824e+02 ;     H3 - C1     - H5    
    14      7     15      1    1.0855e+02    2.9824e+02 ;     H4 - C1     - H5    
    17      4     18      1    1.1528e+02    3.8794e+02 ;     H7 - N3     - H8    
    19      5     20      1    1.1528e+02    3.8794e+02 ;     H9 - N4     - H10   

[ dihedrals ] ; propers
; for gromacs 4.5 or higher, using funct 9
;    i      j      k      l   func   phase     kd      pn
     1      8      2      9      9   180.00   3.34720   2 ;      N-    C2-    N1-    C3
     1      8      3     16      9   180.00   3.34720   2 ;      N-    C2-    N2-    H6
     2      8      3     16      9   180.00   3.34720   2 ;     N1-    C2-    N2-    H6
     2      9      4     17      9   180.00   2.82420   2 ;     N1-    C3-    N3-    H7
     2      9      4     18      9   180.00   2.82420   2 ;     N1-    C3-    N3-    H8
     2      9      5     19      9   180.00   2.82420   2 ;     N1-    C3-    N4-    H9
     2      9      5     20      9   180.00   2.82420   2 ;     N1-    C3-    N4-   H10
     3      8      2      9      9   180.00   3.34720   2 ;     N2-    C2-    N1-    C3
     4      9      2      8      9   180.00  17.36360   2 ;     N3-    C3-    N1-    C2
     4      9      5     19      9   180.00   2.82420   2 ;     N3-    C3-    N4-    H9
     4      9      5     20      9   180.00   2.82420   2 ;     N3-    C3-    N4-   H10
     5      9      2      8      9   180.00  17.36360   2 ;     N4-    C3-    N1-    C2
     5      9      4     17      9   180.00   2.82420   2 ;     N4-    C3-    N3-    H7
     5      9      4     18      9   180.00   2.82420   2 ;     N4-    C3-    N3-    H8
     6      1      7     13      9     0.00   0.00000   0 ;      C-     N-    C1-    H3
     6      1      7     14      9     0.00   0.00000   0 ;      C-     N-    C1-    H4
     6      1      7     15      9     0.00   0.00000   0 ;      C-     N-    C1-    H5
     6      1      8      2      9   180.00   4.39320   2 ;      C-     N-    C2-    N1
     6      1      8      3      9   180.00   4.39320   2 ;      C-     N-    C2-    N2
     7      1      6     10      9     0.00   0.00000   0 ;     C1-     N-     C-     H
     7      1      6     11      9     0.00   0.00000   0 ;     C1-     N-     C-    H1
     7      1      6     12      9     0.00   0.00000   0 ;     C1-     N-     C-    H2
     7      1      8      2      9   180.00   4.39320   2 ;     C1-     N-    C2-    N1
     7      1      8      3      9   180.00   4.39320   2 ;     C1-     N-    C2-    N2
     8      1      6     10      9     0.00   0.00000   0 ;     C2-     N-     C-     H
     8      1      6     11      9     0.00   0.00000   0 ;     C2-     N-     C-    H1
     8      1      6     12      9     0.00   0.00000   0 ;     C2-     N-     C-    H2
     8      1      7     13      9     0.00   0.00000   0 ;     C2-     N-    C1-    H3
     8      1      7     14      9     0.00   0.00000   0 ;     C2-     N-    C1-    H4
     8      1      7     15      9     0.00   0.00000   0 ;     C2-     N-    C1-    H5

[ dihedrals ] ; impropers
; treated as propers in GROMACS to use correct AMBER analytical function
;    i      j      k      l   func   phase     kd      pn
     1      8      2      3      4   180.00   4.60240   2 ;      N-    C2-    N1-    N2
     2      4      9      5      4   180.00   4.60240   2 ;     N1-    N3-    C3-    N4
     8      1      7      6      4   180.00   4.60240   2 ;     C2-     N-    C1-     C
     9     17      4     18      4   180.00   4.60240   2 ;     C3-    H7-    N3-    H8
     9     19      5     20      4   180.00   4.60240   2 ;     C3-    H9-    N4-   H10
