alanine_GMX.gro created by acpype (v: 2023.10.27) on Mon Feb  9 17:25:18 2026
 13
    1  ALA    O    1   0.146  -0.104   0.027
    1  ALA  OXT    2   0.125   0.112  -0.041
    1  ALA    N    3  -0.141   0.115   0.018
    1  ALA   CA    4  -0.071  -0.011   0.039
    1  ALA   CB    5  -0.134  -0.120  -0.047
    1  ALA    C    6   0.075   0.009   0.003
    1  ALA   HA    7  -0.077  -0.037   0.146
    1  ALA  HB1    8  -0.086  -0.217  -0.029
    1  ALA  HB2    9  -0.240  -0.131  -0.025
    1  ALA  HB3   10  -0.123  -0.098  -0.154
    1  ALA   H1   11  -0.239   0.104   0.044
    1  ALA   H2   12  -0.141   0.139  -0.081
    1  ALA    H   13   0.241  -0.093   0.004
    9.61600     7.11400     5.98800
