5950
    13
   1.4570000  -1.0440000   0.2680000   1.2490000   1.1170000  -0.4050000
  -1.4110000   1.1510000   0.1820000  -0.7090000  -0.1140000   0.3940000
  -1.3350000  -1.2000000  -0.4700000   0.7470000   0.0900000   0.0310000
  -0.7670000  -0.3740000   1.4560000  -0.8580000  -2.1700000  -0.2880000
  -2.4020000  -1.3130000  -0.2520000  -1.2250000  -0.9800000  -1.5380000
  -2.3920000   1.0420000   0.4380000  -1.4070000   1.3870000  -0.8100000
   2.4060000  -0.9340000   0.0450000
