; alanine_GMX_OPLS.top created by acpype (v: 2023.10.27) on Mon Feb  9 17:25:18 2026

; Include forcefield parameters
#include "ffoplsaa.itp"

; Include alanine_GMX.itp topology
#include "alanine_GMX.itp"

; Ligand position restraints
#ifdef POSRES_LIG
#include "posre_alanine.itp"
#endif

[ system ]
 alanine

[ molecules ]
; Compound        nmols
 alanine          1     
