; alanine_GMX.itp created by acpype (v: 2023.10.27) on Mon Feb  9 17:25:18 2026

[ atomtypes ]
;name   bond_type     mass     charge   ptype   sigma         epsilon       Amb
 oh       oh          0.00000  0.00000   A     3.24287e-01   3.89112e-01 ; 1.82  0.0930
 o        o           0.00000  0.00000   A     3.04812e-01   6.12119e-01 ; 1.71  0.1463
 n8       n8          0.00000  0.00000   A     3.65019e-01   1.35143e-01 ; 2.05  0.0323
 c3       c3          0.00000  0.00000   A     3.39771e-01   4.51035e-01 ; 1.91  0.1078
 c        c           0.00000  0.00000   A     3.31521e-01   4.13379e-01 ; 1.86  0.0988
 h1       h1          0.00000  0.00000   A     2.42200e-01   8.70272e-02 ; 1.36  0.0208
 hc       hc          0.00000  0.00000   A     2.60018e-01   8.70272e-02 ; 1.46  0.0208
 hn       hn          0.00000  0.00000   A     1.10650e-01   4.18400e-02 ; 0.62  0.0100
 ho       ho          0.00000  0.00000   A     5.37925e-02   1.96648e-02 ; 0.30  0.0047

[ moleculetype ]
;name            nrexcl
 alanine          3

[ atoms ]
;   nr  type  resi  res  atom  cgnr     charge      mass       ; qtot   bond_type
     1   oh     1   ALA     O    1    -0.602100     16.00000 ; qtot -0.602
     2    o     1   ALA   OXT    2    -0.549000     16.00000 ; qtot -1.151
     3   n8     1   ALA     N    3    -0.902799     14.01000 ; qtot -2.054
     4   c3     1   ALA    CA    4     0.128500     12.01000 ; qtot -1.925
     5   c3     1   ALA    CB    5    -0.136100     12.01000 ; qtot -2.061
     6    c     1   ALA     C    6     0.637100     12.01000 ; qtot -1.424
     7   h1     1   ALA    HA    7     0.094700      1.00800 ; qtot -1.330
     8   hc     1   ALA   HB1    8     0.052033      1.00800 ; qtot -1.278
     9   hc     1   ALA   HB2    9     0.052033      1.00800 ; qtot -1.226
    10   hc     1   ALA   HB3   10     0.052033      1.00800 ; qtot -1.174
    11   hn     1   ALA    H1   11     0.363800      1.00800 ; qtot -0.810
    12   hn     1   ALA    H2   12     0.363800      1.00800 ; qtot -0.446
    13   ho     1   ALA     H   13     0.446000      1.00800 ; qtot 0.000

[ bonds ]
;   ai     aj funct   r             k
     1      6   1    1.3556e-01    3.0064e+05 ;      O - C     
     1     13   1    9.7250e-02    4.4811e+05 ;      O - H     
     2      6   1    1.2190e-01    4.9421e+05 ;    OXT - C     
     3      4   1    1.4651e-01    2.1239e+05 ;      N - CA    
     3     11   1    1.0192e-01    3.8550e+05 ;      N - H1    
     3     12   1    1.0192e-01    3.8550e+05 ;      N - H2    
     4      5   1    1.5354e-01    1.9154e+05 ;     CA - CB    
     4      6   1    1.5270e-01    1.9652e+05 ;     CA - C     
     4      7   1    1.0969e-01    2.8804e+05 ;     CA - HA    
     5      8   1    1.0962e-01    2.8891e+05 ;     CB - HB1   
     5      9   1    1.0962e-01    2.8891e+05 ;     CB - HB2   
     5     10   1    1.0962e-01    2.8891e+05 ;     CB - HB3   

[ pairs ]
;   ai     aj    funct
     1      3      1 ;      O - N     
     1      5      1 ;      O - CB    
     1      7      1 ;      O - HA    
     2      3      1 ;    OXT - N     
     2      5      1 ;    OXT - CB    
     2      7      1 ;    OXT - HA    
     3      8      1 ;      N - HB1   
     3      9      1 ;      N - HB2   
     3     10      1 ;      N - HB3   
     5     11      1 ;     CB - H1    
     5     12      1 ;     CB - H2    
     6      8      1 ;      C - HB1   
     6      9      1 ;      C - HB2   
     6     10      1 ;      C - HB3   
     6     11      1 ;      C - H1    
     6     12      1 ;      C - H2    
     7      8      1 ;     HA - HB1   
     7      9      1 ;     HA - HB2   
     7     10      1 ;     HA - HB3   
     7     11      1 ;     HA - H1    
     7     12      1 ;     HA - H2    
    13      2      1 ;      H - OXT   
    13      4      1 ;      H - CA    

[ angles ]
;   ai     aj     ak    funct   theta         cth
     1      6      2      1    1.2209e+02    8.5379e+02 ;      O - C      - OXT   
     1      6      4      1    1.1274e+02    6.4785e+02 ;      O - C      - CA    
     2      6      4      1    1.2290e+02    6.3973e+02 ;    OXT - C      - CA    
     3      4      5      1    1.1091e+02    5.4794e+02 ;      N - CA     - CB    
     3      4      6      1    1.1096e+02    5.4944e+02 ;      N - CA     - C     
     3      4      7      1    1.0812e+02    4.0342e+02 ;      N - CA     - HA    
     4      3     11      1    1.0961e+02    4.7003e+02 ;     CA - N      - H1    
     4      3     12      1    1.0961e+02    4.7003e+02 ;     CA - N      - H2    
     4      5      8      1    1.0968e+02    3.6208e+02 ;     CA - CB     - HB1   
     4      5      9      1    1.0968e+02    3.6208e+02 ;     CA - CB     - HB2   
     4      5     10      1    1.0968e+02    3.6208e+02 ;     CA - CB     - HB3   
     5      4      6      1    1.1143e+02    5.0509e+02 ;     CB - CA     - C     
     5      4      7      1    1.0959e+02    3.6217e+02 ;     CB - CA     - HA    
     6      1     13      1    1.0654e+02    5.7287e+02 ;      C - O      - H     
     6      4      7      1    1.0837e+02    3.6602e+02 ;      C - CA     - HA    
     8      5      9      1    1.0773e+02    2.9957e+02 ;    HB1 - CB     - HB2   
     8      5     10      1    1.0773e+02    2.9957e+02 ;    HB1 - CB     - HB3   
     9      5     10      1    1.0773e+02    2.9957e+02 ;    HB2 - CB     - HB3   
    11      3     12      1    1.0638e+02    4.0074e+02 ;     H1 - N      - H2    

[ dihedrals ] ; propers
; for gromacs 4.5 or higher, using funct 9
;    i      j      k      l   func   phase     kd      pn
     1      6      4      3      9   180.00   0.00000   2 ;      O-     C-    CA-     N
     1      6      4      5      9   180.00   0.00000   2 ;      O-     C-    CA-    CB
     1      6      4      7      9   180.00   0.00000   2 ;      O-     C-    CA-    HA
     2      6      4      3      9   180.00   0.00000   2 ;    OXT-     C-    CA-     N
     2      6      4      5      9     0.00   2.84512   1 ;    OXT-     C-    CA-    CB
     2      6      4      5      9   180.00   0.83680   2 ;    OXT-     C-    CA-    CB
     2      6      4      5      9   180.00   1.84096   3 ;    OXT-     C-    CA-    CB
     2      6      4      7      9     0.00   3.34720   1 ;    OXT-     C-    CA-    HA
     2      6      4      7      9   180.00   0.33472   3 ;    OXT-     C-    CA-    HA
     3      4      5      8      9     0.00   0.20920   3 ;      N-    CA-    CB-   HB1
     3      4      5      9      9     0.00   0.20920   3 ;      N-    CA-    CB-   HB2
     3      4      5     10      9     0.00   0.20920   3 ;      N-    CA-    CB-   HB3
     5      4      3     11      9   180.00   0.12552   3 ;     CB-    CA-     N-    H1
     5      4      3     12      9   180.00   0.12552   3 ;     CB-    CA-     N-    H2
     6      4      3     11      9     0.00   1.25520   3 ;      C-    CA-     N-    H1
     6      4      3     12      9     0.00   1.25520   3 ;      C-    CA-     N-    H2
     6      4      5      8      9     0.00   0.65084   3 ;      C-    CA-    CB-   HB1
     6      4      5      9      9     0.00   0.65084   3 ;      C-    CA-    CB-   HB2
     6      4      5     10      9     0.00   0.65084   3 ;      C-    CA-    CB-   HB3
     7      4      3     11      9     0.00   1.25520   3 ;     HA-    CA-     N-    H1
     7      4      3     12      9     0.00   1.25520   3 ;     HA-    CA-     N-    H2
     7      4      5      8      9     0.00   0.65084   3 ;     HA-    CA-    CB-   HB1
     7      4      5      9      9     0.00   0.65084   3 ;     HA-    CA-    CB-   HB2
     7      4      5     10      9     0.00   0.65084   3 ;     HA-    CA-    CB-   HB3
    13      1      6      2      9     0.00   7.94960   1 ;      H-     O-     C-   OXT
    13      1      6      2      9   180.00   9.62320   2 ;      H-     O-     C-   OXT
    13      1      6      4      9   180.00   7.53120   2 ;      H-     O-     C-    CA

[ dihedrals ] ; impropers
; treated as propers in GROMACS to use correct AMBER analytical function
;    i      j      k      l   func   phase     kd      pn
     1      6      2      4      4   180.00   4.60240   2 ;      O-     C-   OXT-    CA
