; alanine_GMX_OPLS.itp created by acpype (v: 2023.10.27) on Mon Feb  9 17:25:18 2026

; For OPLS atomtypes manual fine tuning
; AC_at:OPLS_at:OPLScode: Possible_Alternatives (see ffoplsaa.atp and ffoplsaanb.itp)
; oh:OH:opls_154: ['167']
; o:O:opls_236: ['272']
; n8:x:opls_x: []
; c3:CT:opls_135: ['136', '137', '149', '157', '158', '206', '209', '210', '223B', '224B', '245', '246', '274', '283', '284', '285', '292', '292B', '293B', '296', '307', '308', '505']
; c:C:opls_235: ['271']
; h1:HC:opls_140: []
; hc:HC:opls_140: []
; hn:H:opls_240: ['241', '290', '301', '304', '310', '504', '513']
; ho:HO:opls_155: ['168']

[ moleculetype ]
;name            nrexcl
 alanine          3

[ atoms ]
;   nr  type  resi  res  atom  cgnr     charge      mass       ; qtot   bond_type
     1 opls_154     1   ALA     O    1    -0.602100     15.99940 ; qtot -0.602  OH  
     2 opls_236     1   ALA   OXT    2    -0.549000     15.99940 ; qtot -1.151  O   
     3 opls_x     1   ALA     N    3    -0.902799      0.00000 ; qtot -2.054  x   
     4 opls_135     1   ALA    CA    4     0.128500     12.01100 ; qtot -1.925  CT  
     5 opls_135     1   ALA    CB    5    -0.136100     12.01100 ; qtot -2.061  CT  
     6 opls_235     1   ALA     C    6     0.637100     12.01100 ; qtot -1.424  C   
     7 opls_140     1   ALA    HA    7     0.094700      1.00800 ; qtot -1.330  HC  
     8 opls_140     1   ALA   HB1    8     0.052033      1.00800 ; qtot -1.278  HC  
     9 opls_140     1   ALA   HB2    9     0.052033      1.00800 ; qtot -1.226  HC  
    10 opls_140     1   ALA   HB3   10     0.052033      1.00800 ; qtot -1.174  HC  
    11 opls_240     1   ALA    H1   11     0.363800      1.00800 ; qtot -0.810  H   
    12 opls_240     1   ALA    H2   12     0.363800      1.00800 ; qtot -0.446  H   
    13 opls_155     1   ALA     H   13     0.446000      1.00800 ; qtot  0.000  HO  

[ bonds ]
;   ai     aj funct   r             k
     1      6   1 ;    1.3556e-01    3.0064e+05 ;      O - C          OH - C     
     1     13   1 ;    9.7250e-02    4.4811e+05 ;      O - H          OH - HO    
     2      6   1 ;    1.2190e-01    4.9421e+05 ;    OXT - C           O - C     
     3      4   1 ;    1.4651e-01    2.1239e+05 ;      N - CA          x - CT    
     3     11   1 ;    1.0192e-01    3.8550e+05 ;      N - H1          x - H     
     3     12   1 ;    1.0192e-01    3.8550e+05 ;      N - H2          x - H     
     4      5   1 ;    1.5354e-01    1.9154e+05 ;     CA - CB         CT - CT    
     4      6   1 ;    1.5270e-01    1.9652e+05 ;     CA - C          CT - C     
     4      7   1 ;    1.0969e-01    2.8804e+05 ;     CA - HA         CT - HC    
     5      8   1 ;    1.0962e-01    2.8891e+05 ;     CB - HB1        CT - HC    
     5      9   1 ;    1.0962e-01    2.8891e+05 ;     CB - HB2        CT - HC    
     5     10   1 ;    1.0962e-01    2.8891e+05 ;     CB - HB3        CT - HC    

[ pairs ]
;   ai     aj    funct
     1      3      1 ;      O - N     
     1      5      1 ;      O - CB    
     1      7      1 ;      O - HA    
     2      3      1 ;    OXT - N     
     2      5      1 ;    OXT - CB    
     2      7      1 ;    OXT - HA    
     3      8      1 ;      N - HB1   
     3      9      1 ;      N - HB2   
     3     10      1 ;      N - HB3   
     5     11      1 ;     CB - H1    
     5     12      1 ;     CB - H2    
     6      8      1 ;      C - HB1   
     6      9      1 ;      C - HB2   
     6     10      1 ;      C - HB3   
     6     11      1 ;      C - H1    
     6     12      1 ;      C - H2    
     7      8      1 ;     HA - HB1   
     7      9      1 ;     HA - HB2   
     7     10      1 ;     HA - HB3   
     7     11      1 ;     HA - H1    
     7     12      1 ;     HA - H2    
    13      2      1 ;      H - OXT   
    13      4      1 ;      H - CA    

[ angles ]
;   ai     aj     ak    funct   theta         cth
     1      6      2      1 ;    1.2209e+02    8.5379e+02 ;      O - C    - OXT      OH -    C - O   
     1      6      4      1 ;    1.1274e+02    6.4785e+02 ;      O - C    - CA       OH -    C - CT  
     2      6      4      1 ;    1.2290e+02    6.3973e+02 ;    OXT - C    - CA        O -    C - CT  
     3      4      5      1 ;    1.1091e+02    5.4794e+02 ;      N - CA   - CB        x -   CT - CT  
     3      4      6      1 ;    1.1096e+02    5.4944e+02 ;      N - CA   - C         x -   CT - C   
     3      4      7      1 ;    1.0812e+02    4.0342e+02 ;      N - CA   - HA        x -   CT - HC  
     4      3     11      1 ;    1.0961e+02    4.7003e+02 ;     CA - N    - H1       CT -    x - H   
     4      3     12      1 ;    1.0961e+02    4.7003e+02 ;     CA - N    - H2       CT -    x - H   
     4      5      8      1 ;    1.0968e+02    3.6208e+02 ;     CA - CB   - HB1      CT -   CT - HC  
     4      5      9      1 ;    1.0968e+02    3.6208e+02 ;     CA - CB   - HB2      CT -   CT - HC  
     4      5     10      1 ;    1.0968e+02    3.6208e+02 ;     CA - CB   - HB3      CT -   CT - HC  
     5      4      6      1 ;    1.1143e+02    5.0509e+02 ;     CB - CA   - C        CT -   CT - C   
     5      4      7      1 ;    1.0959e+02    3.6217e+02 ;     CB - CA   - HA       CT -   CT - HC  
     6      1     13      1 ;    1.0654e+02    5.7287e+02 ;      C - O    - H         C -   OH - HO  
     6      4      7      1 ;    1.0837e+02    3.6602e+02 ;      C - CA   - HA        C -   CT - HC  
     8      5      9      1 ;    1.0773e+02    2.9957e+02 ;    HB1 - CB   - HB2      HC -   CT - HC  
     8      5     10      1 ;    1.0773e+02    2.9957e+02 ;    HB1 - CB   - HB3      HC -   CT - HC  
     9      5     10      1 ;    1.0773e+02    2.9957e+02 ;    HB2 - CB   - HB3      HC -   CT - HC  
    11      3     12      1 ;    1.0638e+02    4.0074e+02 ;     H1 - N    - H2        H -    x - H   

[ dihedrals ] ; propers
; for gromacs 4.5 or higher, using funct 9
;    i      j      k      l   func   phase     kd      pn
     1      6      4      3      9 ;   180.00   0.00000   2 ;      O-     C-    CA-     N
     1      6      4      5      9 ;   180.00   0.00000   2 ;      O-     C-    CA-    CB
     1      6      4      7      9 ;   180.00   0.00000   2 ;      O-     C-    CA-    HA
     2      6      4      3      9 ;   180.00   0.00000   2 ;    OXT-     C-    CA-     N
     2      6      4      5      9 ;     0.00   2.84512   1 ;    OXT-     C-    CA-    CB
     2      6      4      5      9 ;   180.00   0.83680   2 ;    OXT-     C-    CA-    CB
     2      6      4      5      9 ;   180.00   1.84096   3 ;    OXT-     C-    CA-    CB
     2      6      4      7      9 ;     0.00   3.34720   1 ;    OXT-     C-    CA-    HA
     2      6      4      7      9 ;   180.00   0.33472   3 ;    OXT-     C-    CA-    HA
     3      4      5      8      9 ;     0.00   0.20920   3 ;      N-    CA-    CB-   HB1
     3      4      5      9      9 ;     0.00   0.20920   3 ;      N-    CA-    CB-   HB2
     3      4      5     10      9 ;     0.00   0.20920   3 ;      N-    CA-    CB-   HB3
     5      4      3     11      9 ;   180.00   0.12552   3 ;     CB-    CA-     N-    H1
     5      4      3     12      9 ;   180.00   0.12552   3 ;     CB-    CA-     N-    H2
     6      4      3     11      9 ;     0.00   1.25520   3 ;      C-    CA-     N-    H1
     6      4      3     12      9 ;     0.00   1.25520   3 ;      C-    CA-     N-    H2
     6      4      5      8      9 ;     0.00   0.65084   3 ;      C-    CA-    CB-   HB1
     6      4      5      9      9 ;     0.00   0.65084   3 ;      C-    CA-    CB-   HB2
     6      4      5     10      9 ;     0.00   0.65084   3 ;      C-    CA-    CB-   HB3
     7      4      3     11      9 ;     0.00   1.25520   3 ;     HA-    CA-     N-    H1
     7      4      3     12      9 ;     0.00   1.25520   3 ;     HA-    CA-     N-    H2
     7      4      5      8      9 ;     0.00   0.65084   3 ;     HA-    CA-    CB-   HB1
     7      4      5      9      9 ;     0.00   0.65084   3 ;     HA-    CA-    CB-   HB2
     7      4      5     10      9 ;     0.00   0.65084   3 ;     HA-    CA-    CB-   HB3
    13      1      6      2      9 ;     0.00   7.94960   1 ;      H-     O-     C-   OXT
    13      1      6      2      9 ;   180.00   9.62320   2 ;      H-     O-     C-   OXT
    13      1      6      4      9 ;   180.00   7.53120   2 ;      H-     O-     C-    CA

[ dihedrals ] ; impropers
; treated as propers in GROMACS to use correct AMBER analytical function
;    i      j      k      l   func   phase     kd      pn
     1      6      2      4      4 ;   180.00   4.60240   2 ;      O-     C-   OXT-    CA
