; octylphenol_GMX.itp created by acpype (v: 2023.10.27) on Mon Feb  9 17:55:16 2026

[ atomtypes ]
;name   bond_type     mass     charge   ptype   sigma         epsilon       Amb
 oh       oh          0.00000  0.00000   A     3.24287e-01   3.89112e-01 ; 1.82  0.0930
 c3       c3          0.00000  0.00000   A     3.39771e-01   4.51035e-01 ; 1.91  0.1078
 ca       ca          0.00000  0.00000   A     3.31521e-01   4.13379e-01 ; 1.86  0.0988
 hc       hc          0.00000  0.00000   A     2.60018e-01   8.70272e-02 ; 1.46  0.0208
 ha       ha          0.00000  0.00000   A     2.62548e-01   6.73624e-02 ; 1.47  0.0161
 ho       ho          0.00000  0.00000   A     5.37925e-02   1.96648e-02 ; 0.30  0.0047

[ moleculetype ]
;name            nrexcl
 octylphenol      3

[ atoms ]
;   nr  type  resi  res  atom  cgnr     charge      mass       ; qtot   bond_type
     1   oh     1   UNL     O    1    -0.499100     16.00000 ; qtot -0.499
     2   c3     1   UNL     C    2    -0.079400     12.01000 ; qtot -0.578
     3   c3     1   UNL    C1    3    -0.080400     12.01000 ; qtot -0.659
     4   c3     1   UNL    C2    4    -0.079400     12.01000 ; qtot -0.738
     5   c3     1   UNL    C3    5    -0.082400     12.01000 ; qtot -0.821
     6   c3     1   UNL    C4    6    -0.079400     12.01000 ; qtot -0.900
     7   c3     1   UNL    C5    7    -0.037100     12.01000 ; qtot -0.937
     8   c3     1   UNL    C6    8    -0.080400     12.01000 ; qtot -1.018
     9   ca     1   UNL    C7    9    -0.159300     12.01000 ; qtot -1.177
    10   c3     1   UNL    C8   10    -0.093100     12.01000 ; qtot -1.270
    11   ca     1   UNL    C9   11     0.129100     12.01000 ; qtot -1.141
    12   ca     1   UNL   C10   12    -0.091000     12.01000 ; qtot -1.232
    13   ca     1   UNL   C11   13    -0.157000     12.01000 ; qtot -1.389
    14   ca     1   UNL   C12   14    -0.165000     12.01000 ; qtot -1.554
    15   ca     1   UNL   C13   15    -0.099000     12.01000 ; qtot -1.653
    16   hc     1   UNL     H   16     0.041200      1.00800 ; qtot -1.612
    17   hc     1   UNL    H1   17     0.041200      1.00800 ; qtot -1.571
    18   hc     1   UNL    H2   18     0.039700      1.00800 ; qtot -1.531
    19   hc     1   UNL    H3   19     0.039700      1.00800 ; qtot -1.491
    20   hc     1   UNL    H4   20     0.039700      1.00800 ; qtot -1.451
    21   hc     1   UNL    H5   21     0.039700      1.00800 ; qtot -1.412
    22   hc     1   UNL    H6   22     0.046200      1.00800 ; qtot -1.365
    23   hc     1   UNL    H7   23     0.046200      1.00800 ; qtot -1.319
    24   hc     1   UNL    H8   24     0.039700      1.00800 ; qtot -1.280
    25   hc     1   UNL    H9   25     0.039700      1.00800 ; qtot -1.240
    26   hc     1   UNL   H10   26     0.047700      1.00800 ; qtot -1.192
    27   hc     1   UNL   H11   27     0.047700      1.00800 ; qtot -1.144
    28   hc     1   UNL   H12   28     0.038700      1.00800 ; qtot -1.106
    29   hc     1   UNL   H13   29     0.038700      1.00800 ; qtot -1.067
    30   hc     1   UNL   H14   30     0.032700      1.00800 ; qtot -1.034
    31   hc     1   UNL   H15   31     0.032700      1.00800 ; qtot -1.002
    32   hc     1   UNL   H16   32     0.032700      1.00800 ; qtot -0.969
    33   ha     1   UNL   H17   33     0.131000      1.00800 ; qtot -0.838
    34   ha     1   UNL   H18   34     0.149000      1.00800 ; qtot -0.689
    35   ha     1   UNL   H19   35     0.133000      1.00800 ; qtot -0.556
    36   ha     1   UNL   H20   36     0.134000      1.00800 ; qtot -0.422
    37   ho     1   UNL   H21   37     0.422000      1.00800 ; qtot 0.000

[ bonds ]
;   ai     aj funct   r             k
     1     11   1    1.3644e-01    2.9167e+05 ;      O - C9    
     1     37   1    9.7250e-02    4.4811e+05 ;      O - H21   
     2      3   1    1.5354e-01    1.9154e+05 ;      C - C1    
     2      4   1    1.5354e-01    1.9154e+05 ;      C - C2    
     2     16   1    1.0962e-01    2.8891e+05 ;      C - H     
     2     17   1    1.0962e-01    2.8891e+05 ;      C - H1    
     3      5   1    1.5354e-01    1.9154e+05 ;     C1 - C3    
     3     18   1    1.0962e-01    2.8891e+05 ;     C1 - H2    
     3     19   1    1.0962e-01    2.8891e+05 ;     C1 - H3    
     4      6   1    1.5354e-01    1.9154e+05 ;     C2 - C4    
     4     20   1    1.0962e-01    2.8891e+05 ;     C2 - H4    
     4     21   1    1.0962e-01    2.8891e+05 ;     C2 - H5    
     5      7   1    1.5354e-01    1.9154e+05 ;     C3 - C5    
     5     22   1    1.0962e-01    2.8891e+05 ;     C3 - H6    
     5     23   1    1.0962e-01    2.8891e+05 ;     C3 - H7    
     6      8   1    1.5354e-01    1.9154e+05 ;     C4 - C6    
     6     24   1    1.0962e-01    2.8891e+05 ;     C4 - H8    
     6     25   1    1.0962e-01    2.8891e+05 ;     C4 - H9    
     7      9   1    1.5147e-01    2.0410e+05 ;     C5 - C7    
     7     26   1    1.0962e-01    2.8891e+05 ;     C5 - H10   
     7     27   1    1.0962e-01    2.8891e+05 ;     C5 - H11   
     8     10   1    1.5354e-01    1.9154e+05 ;     C6 - C8    
     8     28   1    1.0962e-01    2.8891e+05 ;     C6 - H12   
     8     29   1    1.0962e-01    2.8891e+05 ;     C6 - H13   
     9     11   1    1.3986e-01    2.9644e+05 ;     C7 - C9    
     9     12   1    1.3986e-01    2.9644e+05 ;     C7 - C10   
    10     30   1    1.0962e-01    2.8891e+05 ;     C8 - H14   
    10     31   1    1.0962e-01    2.8891e+05 ;     C8 - H15   
    10     32   1    1.0962e-01    2.8891e+05 ;     C8 - H16   
    11     13   1    1.3986e-01    2.9644e+05 ;     C9 - C11   
    12     14   1    1.3986e-01    2.9644e+05 ;    C10 - C12   
    12     33   1    1.0860e-01    3.0183e+05 ;    C10 - H17   
    13     15   1    1.3986e-01    2.9644e+05 ;    C11 - C13   
    13     34   1    1.0860e-01    3.0183e+05 ;    C11 - H18   
    14     15   1    1.3986e-01    2.9644e+05 ;    C12 - C13   
    14     35   1    1.0860e-01    3.0183e+05 ;    C12 - H19   
    15     36   1    1.0860e-01    3.0183e+05 ;    C13 - H20   

[ pairs ]
;   ai     aj    funct
     1      7      1 ;      O - C5    
     1     12      1 ;      O - C10   
     1     15      1 ;      O - C13   
     1     34      1 ;      O - H18   
     2      7      1 ;      C - C5    
     2      8      1 ;      C - C6    
     2     22      1 ;      C - H6    
     2     23      1 ;      C - H7    
     2     24      1 ;      C - H8    
     2     25      1 ;      C - H9    
     3      6      1 ;     C1 - C4    
     3      9      1 ;     C1 - C7    
     3     20      1 ;     C1 - H4    
     3     21      1 ;     C1 - H5    
     3     26      1 ;     C1 - H10   
     3     27      1 ;     C1 - H11   
     4      5      1 ;     C2 - C3    
     4     10      1 ;     C2 - C8    
     4     18      1 ;     C2 - H2    
     4     19      1 ;     C2 - H3    
     4     28      1 ;     C2 - H12   
     4     29      1 ;     C2 - H13   
     5     11      1 ;     C3 - C9    
     5     12      1 ;     C3 - C10   
     5     16      1 ;     C3 - H     
     5     17      1 ;     C3 - H1    
     6     16      1 ;     C4 - H     
     6     17      1 ;     C4 - H1    
     6     30      1 ;     C4 - H14   
     6     31      1 ;     C4 - H15   
     6     32      1 ;     C4 - H16   
     7     13      1 ;     C5 - C11   
     7     14      1 ;     C5 - C12   
     7     18      1 ;     C5 - H2    
     7     19      1 ;     C5 - H3    
     7     33      1 ;     C5 - H17   
     8     20      1 ;     C6 - H4    
     8     21      1 ;     C6 - H5    
     9     15      1 ;     C7 - C13   
     9     22      1 ;     C7 - H6    
     9     23      1 ;     C7 - H7    
     9     34      1 ;     C7 - H18   
     9     35      1 ;     C7 - H19   
    10     24      1 ;     C8 - H8    
    10     25      1 ;     C8 - H9    
    11     14      1 ;     C9 - C12   
    11     26      1 ;     C9 - H10   
    11     27      1 ;     C9 - H11   
    11     33      1 ;     C9 - H17   
    11     36      1 ;     C9 - H20   
    12     13      1 ;    C10 - C11   
    12     26      1 ;    C10 - H10   
    12     27      1 ;    C10 - H11   
    12     36      1 ;    C10 - H20   
    13     35      1 ;    C11 - H19   
    14     34      1 ;    C12 - H18   
    15     33      1 ;    C13 - H17   
    16     18      1 ;      H - H2    
    16     19      1 ;      H - H3    
    16     20      1 ;      H - H4    
    16     21      1 ;      H - H5    
    17     18      1 ;     H1 - H2    
    17     19      1 ;     H1 - H3    
    17     20      1 ;     H1 - H4    
    17     21      1 ;     H1 - H5    
    18     22      1 ;     H2 - H6    
    18     23      1 ;     H2 - H7    
    19     22      1 ;     H3 - H6    
    19     23      1 ;     H3 - H7    
    20     24      1 ;     H4 - H8    
    20     25      1 ;     H4 - H9    
    21     24      1 ;     H5 - H8    
    21     25      1 ;     H5 - H9    
    22     26      1 ;     H6 - H10   
    22     27      1 ;     H6 - H11   
    23     26      1 ;     H7 - H10   
    23     27      1 ;     H7 - H11   
    24     28      1 ;     H8 - H12   
    24     29      1 ;     H8 - H13   
    25     28      1 ;     H9 - H12   
    25     29      1 ;     H9 - H13   
    28     30      1 ;    H12 - H14   
    28     31      1 ;    H12 - H15   
    28     32      1 ;    H12 - H16   
    29     30      1 ;    H13 - H14   
    29     31      1 ;    H13 - H15   
    29     32      1 ;    H13 - H16   
    33     35      1 ;    H17 - H19   
    34     36      1 ;    H18 - H20   
    35     36      1 ;    H19 - H20   
    37      9      1 ;    H21 - C7    
    37     13      1 ;    H21 - C11   

[ angles ]
;   ai     aj     ak    funct   theta         cth
     1     11      9      1    1.1990e+02    6.5990e+02 ;      O - C9     - C7    
     1     11     13      1    1.1990e+02    6.5990e+02 ;      O - C9     - C11   
     2      3      5      1    1.1263e+02    5.0099e+02 ;      C - C1     - C3    
     2      3     18      1    1.0968e+02    3.6208e+02 ;      C - C1     - H2    
     2      3     19      1    1.0968e+02    3.6208e+02 ;      C - C1     - H3    
     2      4      6      1    1.1263e+02    5.0099e+02 ;      C - C2     - C4    
     2      4     20      1    1.0968e+02    3.6208e+02 ;      C - C2     - H4    
     2      4     21      1    1.0968e+02    3.6208e+02 ;      C - C2     - H5    
     3      2      4      1    1.1263e+02    5.0099e+02 ;     C1 - C      - C2    
     3      2     16      1    1.0968e+02    3.6208e+02 ;     C1 - C      - H     
     3      2     17      1    1.0968e+02    3.6208e+02 ;     C1 - C      - H1    
     3      5      7      1    1.1263e+02    5.0099e+02 ;     C1 - C3     - C5    
     3      5     22      1    1.0968e+02    3.6208e+02 ;     C1 - C3     - H6    
     3      5     23      1    1.0968e+02    3.6208e+02 ;     C1 - C3     - H7    
     4      2     16      1    1.0968e+02    3.6208e+02 ;     C2 - C      - H     
     4      2     17      1    1.0968e+02    3.6208e+02 ;     C2 - C      - H1    
     4      6      8      1    1.1263e+02    5.0099e+02 ;     C2 - C4     - C6    
     4      6     24      1    1.0968e+02    3.6208e+02 ;     C2 - C4     - H8    
     4      6     25      1    1.0968e+02    3.6208e+02 ;     C2 - C4     - H9    
     5      3     18      1    1.0968e+02    3.6208e+02 ;     C3 - C1     - H2    
     5      3     19      1    1.0968e+02    3.6208e+02 ;     C3 - C1     - H3    
     5      7      9      1    1.1242e+02    5.0484e+02 ;     C3 - C5     - C7    
     5      7     26      1    1.0968e+02    3.6208e+02 ;     C3 - C5     - H10   
     5      7     27      1    1.0968e+02    3.6208e+02 ;     C3 - C5     - H11   
     6      4     20      1    1.0968e+02    3.6208e+02 ;     C4 - C2     - H4    
     6      4     21      1    1.0968e+02    3.6208e+02 ;     C4 - C2     - H5    
     6      8     10      1    1.1263e+02    5.0099e+02 ;     C4 - C6     - C8    
     6      8     28      1    1.0968e+02    3.6208e+02 ;     C4 - C6     - H12   
     6      8     29      1    1.0968e+02    3.6208e+02 ;     C4 - C6     - H13   
     7      5     22      1    1.0968e+02    3.6208e+02 ;     C5 - C3     - H6    
     7      5     23      1    1.0968e+02    3.6208e+02 ;     C5 - C3     - H7    
     7      9     11      1    1.2083e+02    5.0827e+02 ;     C5 - C7     - C9    
     7      9     12      1    1.2083e+02    5.0827e+02 ;     C5 - C7     - C10   
     8      6     24      1    1.0968e+02    3.6208e+02 ;     C6 - C4     - H8    
     8      6     25      1    1.0968e+02    3.6208e+02 ;     C6 - C4     - H9    
     8     10     30      1    1.0968e+02    3.6208e+02 ;     C6 - C8     - H14   
     8     10     31      1    1.0968e+02    3.6208e+02 ;     C6 - C8     - H15   
     8     10     32      1    1.0968e+02    3.6208e+02 ;     C6 - C8     - H16   
     9      7     26      1    1.1063e+02    3.6493e+02 ;     C7 - C5     - H10   
     9      7     27      1    1.1063e+02    3.6493e+02 ;     C7 - C5     - H11   
     9     11     13      1    1.2002e+02    5.3279e+02 ;     C7 - C9     - C11   
     9     12     14      1    1.2002e+02    5.3279e+02 ;     C7 - C10    - C12   
     9     12     33      1    1.1988e+02    3.7572e+02 ;     C7 - C10    - H17   
    10      8     28      1    1.0968e+02    3.6208e+02 ;     C8 - C6     - H12   
    10      8     29      1    1.0968e+02    3.6208e+02 ;     C8 - C6     - H13   
    11      1     37      1    1.0858e+02    5.6409e+02 ;     C9 - O      - H21   
    11      9     12      1    1.2002e+02    5.3279e+02 ;     C9 - C7     - C10   
    11     13     15      1    1.2002e+02    5.3279e+02 ;     C9 - C11    - C13   
    11     13     34      1    1.1988e+02    3.7572e+02 ;     C9 - C11    - H18   
    12     14     15      1    1.2002e+02    5.3279e+02 ;    C10 - C12    - C13   
    12     14     35      1    1.1988e+02    3.7572e+02 ;    C10 - C12    - H19   
    13     15     14      1    1.2002e+02    5.3279e+02 ;    C11 - C13    - C12   
    13     15     36      1    1.1988e+02    3.7572e+02 ;    C11 - C13    - H20   
    14     12     33      1    1.1988e+02    3.7572e+02 ;    C12 - C10    - H17   
    14     15     36      1    1.1988e+02    3.7572e+02 ;    C12 - C13    - H20   
    15     13     34      1    1.1988e+02    3.7572e+02 ;    C13 - C11    - H18   
    15     14     35      1    1.1988e+02    3.7572e+02 ;    C13 - C12    - H19   
    16      2     17      1    1.0773e+02    2.9957e+02 ;      H - C      - H1    
    18      3     19      1    1.0773e+02    2.9957e+02 ;     H2 - C1     - H3    
    20      4     21      1    1.0773e+02    2.9957e+02 ;     H4 - C2     - H5    
    22      5     23      1    1.0773e+02    2.9957e+02 ;     H6 - C3     - H7    
    24      6     25      1    1.0773e+02    2.9957e+02 ;     H8 - C4     - H9    
    26      7     27      1    1.0773e+02    2.9957e+02 ;    H10 - C5     - H11   
    28      8     29      1    1.0773e+02    2.9957e+02 ;    H12 - C6     - H13   
    30     10     31      1    1.0773e+02    2.9957e+02 ;    H14 - C8     - H15   
    30     10     32      1    1.0773e+02    2.9957e+02 ;    H14 - C8     - H16   
    31     10     32      1    1.0773e+02    2.9957e+02 ;    H15 - C8     - H16   

[ dihedrals ] ; propers
; for gromacs 4.5 or higher, using funct 9
;    i      j      k      l   func   phase     kd      pn
     1     11      9      7      9   180.00  15.16700   2 ;      O-    C9-    C7-    C5
     1     11      9     12      9   180.00  15.16700   2 ;      O-    C9-    C7-   C10
     1     11     13     15      9   180.00  15.16700   2 ;      O-    C9-   C11-   C13
     1     11     13     34      9   180.00  15.16700   2 ;      O-    C9-   C11-   H18
     2      3      5      7      9     0.00   2.17568   3 ;      C-    C1-    C3-    C5
     2      3      5     22      9     0.00   0.54392   3 ;      C-    C1-    C3-    H6
     2      3      5     23      9     0.00   0.54392   3 ;      C-    C1-    C3-    H7
     2      4      6      8      9     0.00   2.17568   3 ;      C-    C2-    C4-    C6
     2      4      6     24      9     0.00   0.54392   3 ;      C-    C2-    C4-    H8
     2      4      6     25      9     0.00   0.54392   3 ;      C-    C2-    C4-    H9
     3      2      4      6      9     0.00   2.17568   3 ;     C1-     C-    C2-    C4
     3      2      4     20      9     0.00   0.54392   3 ;     C1-     C-    C2-    H4
     3      2      4     21      9     0.00   0.54392   3 ;     C1-     C-    C2-    H5
     3      5      7      9      9     0.00   0.65084   3 ;     C1-    C3-    C5-    C7
     3      5      7     26      9     0.00   0.54392   3 ;     C1-    C3-    C5-   H10
     3      5      7     27      9     0.00   0.54392   3 ;     C1-    C3-    C5-   H11
     4      2      3      5      9     0.00   2.17568   3 ;     C2-     C-    C1-    C3
     4      2      3     18      9     0.00   0.54392   3 ;     C2-     C-    C1-    H2
     4      2      3     19      9     0.00   0.54392   3 ;     C2-     C-    C1-    H3
     4      6      8     10      9     0.00   2.17568   3 ;     C2-    C4-    C6-    C8
     4      6      8     28      9     0.00   0.54392   3 ;     C2-    C4-    C6-   H12
     4      6      8     29      9     0.00   0.54392   3 ;     C2-    C4-    C6-   H13
     5      3      2     16      9     0.00   0.54392   3 ;     C3-    C1-     C-     H
     5      3      2     17      9     0.00   0.54392   3 ;     C3-    C1-     C-    H1
     5      7      9     11      9   180.00   1.00416   2 ;     C3-    C5-    C7-    C9
     5      7      9     12      9   180.00   1.00416   2 ;     C3-    C5-    C7-   C10
     6      4      2     16      9     0.00   0.54392   3 ;     C4-    C2-     C-     H
     6      4      2     17      9     0.00   0.54392   3 ;     C4-    C2-     C-    H1
     6      8     10     30      9     0.00   0.54392   3 ;     C4-    C6-    C8-   H14
     6      8     10     31      9     0.00   0.54392   3 ;     C4-    C6-    C8-   H15
     6      8     10     32      9     0.00   0.54392   3 ;     C4-    C6-    C8-   H16
     7      5      3     18      9     0.00   0.54392   3 ;     C5-    C3-    C1-    H2
     7      5      3     19      9     0.00   0.54392   3 ;     C5-    C3-    C1-    H3
     7      9     11     13      9   180.00  15.16700   2 ;     C5-    C7-    C9-   C11
     7      9     12     14      9   180.00  15.16700   2 ;     C5-    C7-   C10-   C12
     7      9     12     33      9   180.00  15.16700   2 ;     C5-    C7-   C10-   H17
     8      6      4     20      9     0.00   0.54392   3 ;     C6-    C4-    C2-    H4
     8      6      4     21      9     0.00   0.54392   3 ;     C6-    C4-    C2-    H5
     9      7      5     22      9     0.00   0.65084   3 ;     C7-    C5-    C3-    H6
     9      7      5     23      9     0.00   0.65084   3 ;     C7-    C5-    C3-    H7
     9     11     13     15      9   180.00  15.16700   2 ;     C7-    C9-   C11-   C13
     9     11     13     34      9   180.00  15.16700   2 ;     C7-    C9-   C11-   H18
     9     12     14     15      9   180.00  15.16700   2 ;     C7-   C10-   C12-   C13
     9     12     14     35      9   180.00  15.16700   2 ;     C7-   C10-   C12-   H19
    10      8      6     24      9     0.00   0.54392   3 ;     C8-    C6-    C4-    H8
    10      8      6     25      9     0.00   0.54392   3 ;     C8-    C6-    C4-    H9
    11      9      7     26      9     0.00   0.00000   0 ;     C9-    C7-    C5-   H10
    11      9      7     27      9     0.00   0.00000   0 ;     C9-    C7-    C5-   H11
    11      9     12     14      9   180.00  15.16700   2 ;     C9-    C7-   C10-   C12
    11      9     12     33      9   180.00  15.16700   2 ;     C9-    C7-   C10-   H17
    11     13     15     14      9   180.00  15.16700   2 ;     C9-   C11-   C13-   C12
    11     13     15     36      9   180.00  15.16700   2 ;     C9-   C11-   C13-   H20
    12      9      7     26      9     0.00   0.00000   0 ;    C10-    C7-    C5-   H10
    12      9      7     27      9     0.00   0.00000   0 ;    C10-    C7-    C5-   H11
    12      9     11     13      9   180.00  15.16700   2 ;    C10-    C7-    C9-   C11
    12     14     15     13      9   180.00  15.16700   2 ;    C10-   C12-   C13-   C11
    12     14     15     36      9   180.00  15.16700   2 ;    C10-   C12-   C13-   H20
    13     15     14     35      9   180.00  15.16700   2 ;    C11-   C13-   C12-   H19
    14     15     13     34      9   180.00  15.16700   2 ;    C12-   C13-   C11-   H18
    15     14     12     33      9   180.00  15.16700   2 ;    C13-   C12-   C10-   H17
    16      2      3     18      9     0.00   0.50208   3 ;      H-     C-    C1-    H2
    16      2      3     19      9     0.00   0.50208   3 ;      H-     C-    C1-    H3
    16      2      4     20      9     0.00   0.50208   3 ;      H-     C-    C2-    H4
    16      2      4     21      9     0.00   0.50208   3 ;      H-     C-    C2-    H5
    17      2      3     18      9     0.00   0.50208   3 ;     H1-     C-    C1-    H2
    17      2      3     19      9     0.00   0.50208   3 ;     H1-     C-    C1-    H3
    17      2      4     20      9     0.00   0.50208   3 ;     H1-     C-    C2-    H4
    17      2      4     21      9     0.00   0.50208   3 ;     H1-     C-    C2-    H5
    18      3      5     22      9     0.00   0.50208   3 ;     H2-    C1-    C3-    H6
    18      3      5     23      9     0.00   0.50208   3 ;     H2-    C1-    C3-    H7
    19      3      5     22      9     0.00   0.50208   3 ;     H3-    C1-    C3-    H6
    19      3      5     23      9     0.00   0.50208   3 ;     H3-    C1-    C3-    H7
    20      4      6     24      9     0.00   0.50208   3 ;     H4-    C2-    C4-    H8
    20      4      6     25      9     0.00   0.50208   3 ;     H4-    C2-    C4-    H9
    21      4      6     24      9     0.00   0.50208   3 ;     H5-    C2-    C4-    H8
    21      4      6     25      9     0.00   0.50208   3 ;     H5-    C2-    C4-    H9
    22      5      7     26      9     0.00   0.50208   3 ;     H6-    C3-    C5-   H10
    22      5      7     27      9     0.00   0.50208   3 ;     H6-    C3-    C5-   H11
    23      5      7     26      9     0.00   0.50208   3 ;     H7-    C3-    C5-   H10
    23      5      7     27      9     0.00   0.50208   3 ;     H7-    C3-    C5-   H11
    24      6      8     28      9     0.00   0.50208   3 ;     H8-    C4-    C6-   H12
    24      6      8     29      9     0.00   0.50208   3 ;     H8-    C4-    C6-   H13
    25      6      8     28      9     0.00   0.50208   3 ;     H9-    C4-    C6-   H12
    25      6      8     29      9     0.00   0.50208   3 ;     H9-    C4-    C6-   H13
    28      8     10     30      9     0.00   0.50208   3 ;    H12-    C6-    C8-   H14
    28      8     10     31      9     0.00   0.50208   3 ;    H12-    C6-    C8-   H15
    28      8     10     32      9     0.00   0.50208   3 ;    H12-    C6-    C8-   H16
    29      8     10     30      9     0.00   0.50208   3 ;    H13-    C6-    C8-   H14
    29      8     10     31      9     0.00   0.50208   3 ;    H13-    C6-    C8-   H15
    29      8     10     32      9     0.00   0.50208   3 ;    H13-    C6-    C8-   H16
    33     12     14     35      9   180.00  15.16700   2 ;    H17-   C10-   C12-   H19
    34     13     15     36      9   180.00  15.16700   2 ;    H18-   C11-   C13-   H20
    35     14     15     36      9   180.00  15.16700   2 ;    H19-   C12-   C13-   H20
    37      1     11      9      9   180.00   3.57732   2 ;    H21-     O-    C9-    C7
    37      1     11     13      9   180.00   3.57732   2 ;    H21-     O-    C9-   C11

[ dihedrals ] ; impropers
; treated as propers in GROMACS to use correct AMBER analytical function
;    i      j      k      l   func   phase     kd      pn
     1     11     13      9      4   180.00   4.60240   2 ;      O-    C9-   C11-    C7
     9     14     12     33      4   180.00   4.60240   2 ;     C7-   C12-   C10-   H17
    11     12      9      7      4   180.00   4.60240   2 ;     C9-   C10-    C7-    C5
    11     15     13     34      4   180.00   4.60240   2 ;     C9-   C13-   C11-   H18
    12     15     14     35      4   180.00   4.60240   2 ;    C10-   C13-   C12-   H19
    13     14     15     36      4   180.00   4.60240   2 ;    C11-   C12-   C13-   H20
