octylphenol_GMX.gro created by acpype (v: 2023.10.27) on Mon Feb  9 17:55:16 2026
 37
    1  UNL    O    1  -0.270  -0.222  -0.005
    1  UNL    C    2   0.252   0.017   0.020
    1  UNL   C1    3   0.132   0.002  -0.075
    1  UNL   C2    4   0.387   0.001  -0.049
    1  UNL   C3    5  -0.006   0.008  -0.010
    1  UNL   C4    6   0.502   0.009   0.051
    1  UNL   C5    7  -0.121  -0.002  -0.110
    1  UNL   C6    8   0.638  -0.004  -0.018
    1  UNL   C7    9  -0.255   0.014  -0.043
    1  UNL   C8   10   0.752   0.007   0.082
    1  UNL   C9   11  -0.322  -0.097   0.007
    1  UNL  C10   12  -0.309   0.141  -0.031
    1  UNL  C11   13  -0.446  -0.080   0.069
    1  UNL  C12   14  -0.433   0.158   0.031
    1  UNL  C13   15  -0.501   0.047   0.081
    1  UNL    H   16   0.247   0.116   0.068
    1  UNL   H1   17   0.243  -0.058   0.100
    1  UNL   H2   18   0.141  -0.094  -0.128
    1  UNL   H3   19   0.139   0.080  -0.152
    1  UNL   H4   20   0.391  -0.095  -0.102
    1  UNL   H5   21   0.399   0.080  -0.125
    1  UNL   H6   22  -0.014  -0.072   0.065
    1  UNL   H7   23  -0.014   0.103   0.046
    1  UNL   H8   24   0.491  -0.071   0.126
    1  UNL   H9   25   0.497   0.104   0.106
    1  UNL  H10   26  -0.110   0.077  -0.185
    1  UNL  H11   27  -0.116  -0.095  -0.168
    1  UNL  H12   28   0.644  -0.100  -0.070
    1  UNL  H13   29   0.648   0.075  -0.093
    1  UNL  H14   30   0.746  -0.072   0.157
    1  UNL  H15   31   0.848  -0.003   0.030
    1  UNL  H16   32   0.751   0.103   0.133
    1  UNL  H17   33  -0.257   0.229  -0.069
    1  UNL  H18   34  -0.500  -0.166   0.108
    1  UNL  H19   35  -0.476   0.257   0.041
    1  UNL  H20   36  -0.598   0.060   0.129
    1  UNL  H21   37  -0.174  -0.218  -0.022
   28.92000     9.58600     6.84200
