13700
    37
  -2.6960000  -2.2210000  -0.0480000   2.5170000   0.1720000   0.2000000
   1.3240000   0.0190000  -0.7490000   3.8720000   0.0140000  -0.4930000
  -0.0600000   0.0840000  -0.0960000   5.0210000   0.0870000   0.5140000
  -1.2110000  -0.0180000  -1.1000000   6.3780000  -0.0380000  -0.1790000
  -2.5510000   0.1420000  -0.4260000   7.5230000   0.0680000   0.8150000
  -3.2220000  -0.9690000   0.0650000  -3.0910000   1.4140000  -0.3090000
  -4.4600000  -0.8040000   0.6860000  -4.3290000   1.5790000   0.3120000
  -5.0140000   0.4700000   0.8090000   2.4660000   1.1550000   0.6840000
   2.4300000  -0.5770000   0.9960000   1.4130000  -0.9400000  -1.2750000
   1.3890000   0.8000000  -1.5180000   3.9060000  -0.9490000  -1.0180000
   3.9880000   0.7990000  -1.2500000  -0.1410000  -0.7180000   0.6480000
  -0.1400000   1.0270000   0.4600000   4.9120000  -0.7130000   1.2570000
   4.9730000   1.0400000   1.0560000  -1.1000000   0.7740000  -1.8540000
  -1.1560000  -0.9490000  -1.6760000   6.4410000  -1.0000000  -0.7020000
   6.4840000   0.7490000  -0.9340000   7.4640000  -0.7240000   1.5670000
   8.4830000  -0.0250000   0.2980000   7.5070000   1.0340000   1.3300000
  -2.5670000   2.2860000  -0.6900000  -4.9980000  -1.6630000   1.0760000
  -4.7600000   2.5720000   0.4090000  -5.9770000   0.5990000   1.2930000
  -1.7430000  -2.1820000  -0.2240000
