%VERSION  VERSION_STAMP = V0001.000  DATE = 02/09/26  17:55:34                  
%FLAG TITLE                                                                     
%FORMAT(20a4)                                                                   
13700                                                                           
%FLAG POINTERS                                                                  
%FORMAT(10I8)                                                                   
      37       6      22      15      50      17      80      21       0       0
     200       1      15      17      21       7      10       9       6       0
       0       0       0       0       0       0       0       0      37       0
       0
%FLAG ATOM_NAME                                                                 
%FORMAT(20a4)                                                                   
O   C   C1  C2  C3  C4  C5  C6  C7  C8  C9  C10 C11 C12 C13 H   H1  H2  H3  H4  
H5  H6  H7  H8  H9  H10 H11 H12 H13 H14 H15 H16 H17 H18 H19 H20 H21 
%FLAG CHARGE                                                                    
%FORMAT(5E16.8)                                                                 
 -9.14941683E+00 -1.44685062E+00 -1.46507292E+00 -1.44685062E+00 -1.50151752E+00
 -1.44685062E+00 -6.76047330E-01 -1.46507292E+00 -2.90281239E+00 -1.69649613E+00
  2.35249893E+00 -1.65822930E+00 -2.86090110E+00 -3.00667950E+00 -1.80400770E+00
  7.50758760E-01  7.50758760E-01  7.23425310E-01  7.23425310E-01  7.23425310E-01
  7.23425310E-01  8.41870260E-01  8.41870260E-01  7.23425310E-01  7.23425310E-01
  8.69203710E-01  8.69203710E-01  7.05203010E-01  7.05203010E-01  5.95869210E-01
  5.95869210E-01  5.95869210E-01  2.38712130E+00  2.71512270E+00  2.42356590E+00
  2.44178820E+00  7.68981060E+00
%FLAG ATOMIC_NUMBER                                                             
%FORMAT(10I8)                                                                   
       8       6       6       6       6       6       6       6       6       6
       6       6       6       6       6       1       1       1       1       1
       1       1       1       1       1       1       1       1       1       1
       1       1       1       1       1       1       1
%FLAG MASS                                                                      
%FORMAT(5E16.8)                                                                 
  1.60000000E+01  1.20100000E+01  1.20100000E+01  1.20100000E+01  1.20100000E+01
  1.20100000E+01  1.20100000E+01  1.20100000E+01  1.20100000E+01  1.20100000E+01
  1.20100000E+01  1.20100000E+01  1.20100000E+01  1.20100000E+01  1.20100000E+01
  1.00800000E+00  1.00800000E+00  1.00800000E+00  1.00800000E+00  1.00800000E+00
  1.00800000E+00  1.00800000E+00  1.00800000E+00  1.00800000E+00  1.00800000E+00
  1.00800000E+00  1.00800000E+00  1.00800000E+00  1.00800000E+00  1.00800000E+00
  1.00800000E+00  1.00800000E+00  1.00800000E+00  1.00800000E+00  1.00800000E+00
  1.00800000E+00  1.00800000E+00
%FLAG ATOM_TYPE_INDEX                                                           
%FORMAT(10I8)                                                                   
       1       2       2       2       2       2       2       2       3       2
       3       3       3       3       3       4       4       4       4       4
       4       4       4       4       4       4       4       4       4       4
       4       4       5       5       5       5       6
%FLAG NUMBER_EXCLUDED_ATOMS                                                     
%FORMAT(10I8)                                                                   
       8      16      15      14      12      13      12      10      13       7
      10       8       6       5       4       5       4       3       2       3
       2       3       2       3       2       1       1       4       3       2
       1       1       1       1       1       1       1
%FLAG NONBONDED_PARM_INDEX                                                      
%FORMAT(10I8)                                                                   
       1       2       4       7      11      16       2       3       5       8
      12      17       4       5       6       9      13      18       7       8
       9      10      14      19      11      12      13      14      15      20
      16      17      18      19      20      21
%FLAG RESIDUE_LABEL                                                             
%FORMAT(20a4)                                                                   
UNL 
%FLAG RESIDUE_POINTER                                                           
%FORMAT(10I8)                                                                   
       1
%FLAG BOND_FORCE_CONSTANT                                                       
%FORMAT(5E16.8)                                                                 
  3.48550000E+02  5.35510000E+02  2.28890000E+02  3.45250000E+02  2.43910000E+02
  3.54250000E+02  3.60690000E+02
%FLAG BOND_EQUIL_VALUE                                                          
%FORMAT(5E16.8)                                                                 
  1.36440000E+00  9.72500000E-01  1.53540000E+00  1.09620000E+00  1.51470000E+00
  1.39860000E+00  1.08600000E+00
%FLAG ANGLE_FORCE_CONSTANT                                                      
%FORMAT(5E16.8)                                                                 
  7.88600000E+01  5.98700000E+01  4.32700000E+01  6.03300000E+01  6.07400000E+01
  4.36100000E+01  6.36700000E+01  4.49000000E+01  6.74100000E+01  3.58000000E+01
%FLAG ANGLE_EQUIL_VALUE                                                         
%FORMAT(5E16.8)                                                                 
  2.09265067E+00  1.96576518E+00  1.91427794E+00  1.96209999E+00  2.10888224E+00
  1.93085858E+00  2.09474507E+00  2.09230160E+00  1.89507931E+00  1.88024401E+00
%FLAG DIHEDRAL_FORCE_CONSTANT                                                   
%FORMAT(5E16.8)                                                                 
  3.62500000E+00  5.20000000E-01  1.30000000E-01  1.55555556E-01  2.40000000E-01
  8.55000000E-01  0.00000000E+00  1.20000000E-01  1.10000000E+00
%FLAG DIHEDRAL_PERIODICITY                                                      
%FORMAT(5E16.8)                                                                 
  2.00000000E+00  3.00000000E+00  3.00000000E+00  3.00000000E+00  2.00000000E+00
  2.00000000E+00  1.00000000E+00  3.00000000E+00  2.00000000E+00
%FLAG DIHEDRAL_PHASE                                                            
%FORMAT(5E16.8)                                                                 
  3.14159400E+00  0.00000000E+00  0.00000000E+00  0.00000000E+00  3.14159400E+00
  3.14159400E+00  0.00000000E+00  0.00000000E+00  3.14159400E+00
%FLAG SCEE_SCALE_FACTOR                                                         
%FORMAT(5E16.8)                                                                 
  1.20000000E+00  1.20000000E+00  1.20000000E+00  1.20000000E+00  1.20000000E+00
  1.20000000E+00  1.20000000E+00  1.20000000E+00  0.00000000E+00
%FLAG SCNB_SCALE_FACTOR                                                         
%FORMAT(5E16.8)                                                                 
  2.00000000E+00  2.00000000E+00  2.00000000E+00  2.00000000E+00  2.00000000E+00
  2.00000000E+00  2.00000000E+00  2.00000000E+00  0.00000000E+00
%FLAG SOLTY                                                                     
%FORMAT(5E16.8)                                                                 
  0.00000000E+00  0.00000000E+00  0.00000000E+00  0.00000000E+00  0.00000000E+00
  0.00000000E+00
%FLAG LENNARD_JONES_ACOEF                                                       
%FORMAT(5E16.8)                                                                 
  5.03152404E+05  7.18991463E+05  1.02073671E+06  5.92438683E+05  8.43969952E+05
  6.96551276E+05  6.80216136E+04  1.00235148E+05  8.12662403E+04  7.94617769E+03
  6.30298721E+04  9.27554496E+04  7.52549148E+04  7.41026906E+03  6.90855956E+03
  1.74176419E+02  3.03553352E+02  2.25372434E+02  8.80612241E+00  8.53132435E+00
  1.10360882E-05
%FLAG LENNARD_JONES_BCOEF                                                       
%FORMAT(5E16.8)                                                                 
  4.32634597E+02  5.36620538E+02  6.63431737E+02  4.76608379E+02  5.90251928E+02
  5.24668528E+02  1.09393126E+02  1.37787728E+02  1.21392023E+02  2.57122925E+01
  9.87712192E+01  1.24325688E+02  1.09570372E+02  2.32899892E+01  2.10929191E+01
  3.81654050E+00  5.22789272E+00  4.40751799E+00  5.90150328E-01  5.44840215E-01
  4.55498033E-04
%FLAG BONDS_INC_HYDROGEN                                                        
%FORMAT(10I8)                                                                   
       0     108       2       3      45       4       3      48       4       6
      51       4       6      54       4       9      57       4       9      60
       4      12      63       4      12      66       4      15      69       4
      15      72       4      18      75       4      18      78       4      21
      81       4      21      84       4      27      87       4      27      90
       4      27      93       4      33      96       7      36      99       7
      39     102       7      42     105       7
%FLAG BONDS_WITHOUT_HYDROGEN                                                    
%FORMAT(10I8)                                                                   
       0      30       1       3       6       3       3       9       3       6
      12       3       9      15       3      12      18       3      15      21
       3      18      24       5      21      27       3      24      30       6
      24      33       6      30      36       6      33      39       6      36
      42       6      39      42       6
%FLAG ANGLES_INC_HYDROGEN                                                       
%FORMAT(10I8)                                                                   
       3       6      51       3       3       6      54       3       3       9
      57       3       3       9      60       3       6       3      45       3
       6       3      48       3       6      12      63       3       6      12
      66       3       9       3      45       3       9       3      48       3
       9      15      69       3       9      15      72       3      12       6
      51       3      12       6      54       3      12      18      75       3
      12      18      78       3      15       9      57       3      15       9
      60       3      15      21      81       3      15      21      84       3
      18      12      63       3      18      12      66       3      21      15
      69       3      21      15      72       3      21      27      87       3
      21      27      90       3      21      27      93       3      24      18
      75       6      24      18      78       6      24      33      96       8
      27      21      81       3      27      21      84       3      30       0
     108       9      30      36      99       8      33      39     102       8
      36      42     105       8      39      33      96       8      39      42
     105       8      42      36      99       8      42      39     102       8
      45       3      48      10      51       6      54      10      57       9
      60      10      63      12      66      10      69      15      72      10
      75      18      78      10      81      21      84      10      87      27
      90      10      87      27      93      10      90      27      93      10
%FLAG ANGLES_WITHOUT_HYDROGEN                                                   
%FORMAT(10I8)                                                                   
       0      30      24       1       0      30      36       1       3       6
      12       2       3       9      15       2       6       3       9       2
       6      12      18       2       9      15      21       2      12      18
      24       4      15      21      27       2      18      24      30       5
      18      24      33       5      24      30      36       7      24      33
      39       7      30      24      33       7      30      36      42       7
      33      39      42       7      36      42      39       7
%FLAG DIHEDRALS_INC_HYDROGEN                                                    
%FORMAT(10I8)                                                                   
       0      30      36      99       1       3       6      12      63       3
       3       6      12      66       3       3       9      15      69       3
       3       9      15      72       3       6       3       9      57       3
       6       3       9      60       3       6      12      18      75       3
       6      12      18      78       3       9       3       6      51       3
       9       3       6      54       3       9      15      21      81       3
       9      15      21      84       3      12       6       3      45       3
      12       6       3      48       3      15       9       3      45       3
      15       9       3      48       3      15      21      27      87       3
      15      21      27      90       3      15      21      27      93       3
      18      12       6      51       3      18      12       6      54       3
      18      24      33      96       1      21      15       9      57       3
      21      15       9      60       3      24      18      12      63       4
      24      18      12      66       4     108       0      30      24       6
      24      30      36      99       1      24      33      39     102       1
      27      21      15      69       3      27      21      15      72       3
      30      24      18      75       7      30      24      18      78       7
      30      24      33      96       1      30      36      42     105       1
      33      24      18      75       7      33      24      18      78       7
      33      39      42     105       1     108       0      30      36       6
      36      42      39     102       1      39      42      36      99       1
      42      39      33      96       1      45       3       6      51       8
      45       3       6      54       8      45       3       9      57       8
      45       3       9      60       8      48       3       6      51       8
      48       3       6      54       8      48       3       9      57       8
      48       3       9      60       8      51       6      12      63       8
      51       6      12      66       8      54       6      12      63       8
      54       6      12      66       8      57       9      15      69       8
      57       9      15      72       8      60       9      15      69       8
      60       9      15      72       8      63      12      18      75       8
      63      12      18      78       8      66      12      18      75       8
      66      12      18      78       8      69      15      21      81       8
      69      15      21      84       8      72      15      21      81       8
      72      15      21      84       8      81      21      27      87       8
      81      21      27      90       8      81      21      27      93       8
      84      21      27      87       8      84      21      27      90       8
      84      21      27      93       8      96      33      39     102       1
      99      36      42     105       1     102      39      42     105       1
      24      39     -33     -96       9      30      42     -36     -99       9
      33      42     -39    -102       9      36      39     -42    -105       9
%FLAG DIHEDRALS_WITHOUT_HYDROGEN                                                
%FORMAT(10I8)                                                                   
       0      30      24      18       1       0      30      24      33       1
       0      30      36      42       1       3       6      12      18       2
       3       9      15      21       2       6       3       9      15       2
       6      12      18      24       4       9       3       6      12       2
       9      15      21      27       2      12      18      24      30       5
      12      18      24      33       5      18      24      30      36       1
      18      24      33      39       1      24      30      36      42       1
      24      33     -39      42       1      30      24      33      39       1
      30      36     -42      39       1      33      24      30      36       1
      33      39     -42      36       1      30      33     -24     -18       9
       0      30     -36     -24       9
%FLAG EXCLUDED_ATOMS_LIST                                                       
%FORMAT(10I8)                                                                   
       7       9      11      12      13      15      34      37       3       4
       5       6       7       8      16      17      18      19      20      21
      22      23      24      25       4       5       6       7       9      16
      17      18      19      20      21      22      23      26      27       5
       6       8      10      16      17      18      19      20      21      24
      25      28      29       7       9      11      12      16      17      18
      19      22      23      26      27       8      10      16      17      20
      21      24      25      28      29      30      31      32       9      11
      12      13      14      18      19      22      23      26      27      33
      10      20      21      24      25      28      29      30      31      32
      11      12      13      14      15      22      23      26      27      33
      34      35      37      24      25      28      29      30      31      32
      12      13      14      15      26      27      33      34      36      37
      13      14      15      26      27      33      35      36      14      15
      34      35      36      37      15      33      34      35      36      33
      34      35      36      17      18      19      20      21      18      19
      20      21      19      22      23      22      23      21      24      25
      24      25      23      26      27      26      27      25      28      29
      28      29      27       0      29      30      31      32      30      31
      32      31      32      32       0      35      36      36       0       0
%FLAG HBOND_ACOEF                                                               
%FORMAT(5E16.8)                                                                 

%FLAG HBOND_BCOEF                                                               
%FORMAT(5E16.8)                                                                 

%FLAG HBCUT                                                                     
%FORMAT(5E16.8)                                                                 

%FLAG AMBER_ATOM_TYPE                                                           
%FORMAT(20a4)                                                                   
oh  c3  c3  c3  c3  c3  c3  c3  ca  c3  ca  ca  ca  ca  ca  hc  hc  hc  hc  hc  
hc  hc  hc  hc  hc  hc  hc  hc  hc  hc  hc  hc  ha  ha  ha  ha  ho  
%FLAG TREE_CHAIN_CLASSIFICATION                                                 
%FORMAT(20a4)                                                                   
BLA BLA BLA BLA BLA BLA BLA BLA BLA BLA BLA BLA BLA BLA BLA BLA BLA BLA BLA BLA 
BLA BLA BLA BLA BLA BLA BLA BLA BLA BLA BLA BLA BLA BLA BLA BLA BLA 
%FLAG JOIN_ARRAY                                                                
%FORMAT(10I8)                                                                   
       0       0       0       0       0       0       0       0       0       0
       0       0       0       0       0       0       0       0       0       0
       0       0       0       0       0       0       0       0       0       0
       0       0       0       0       0       0       0
%FLAG IROTAT                                                                    
%FORMAT(10I8)                                                                   
       0       0       0       0       0       0       0       0       0       0
       0       0       0       0       0       0       0       0       0       0
       0       0       0       0       0       0       0       0       0       0
       0       0       0       0       0       0       0
%FLAG RADIUS_SET                                                                
%FORMAT(1a80)                                                                   
modified Bondi radii (mbondi)                                                   
%FLAG RADII                                                                     
%FORMAT(5E16.8)                                                                 
  1.50000000E+00  1.70000000E+00  1.70000000E+00  1.70000000E+00  1.70000000E+00
  1.70000000E+00  1.70000000E+00  1.70000000E+00  1.70000000E+00  1.70000000E+00
  1.70000000E+00  1.70000000E+00  1.70000000E+00  1.70000000E+00  1.70000000E+00
  1.30000000E+00  1.30000000E+00  1.30000000E+00  1.30000000E+00  1.30000000E+00
  1.30000000E+00  1.30000000E+00  1.30000000E+00  1.30000000E+00  1.30000000E+00
  1.30000000E+00  1.30000000E+00  1.30000000E+00  1.30000000E+00  1.30000000E+00
  1.30000000E+00  1.30000000E+00  1.30000000E+00  1.30000000E+00  1.30000000E+00
  1.30000000E+00  8.00000000E-01
%FLAG SCREEN                                                                    
%FORMAT(5E16.8)                                                                 
  8.50000000E-01  7.20000000E-01  7.20000000E-01  7.20000000E-01  7.20000000E-01
  7.20000000E-01  7.20000000E-01  7.20000000E-01  7.20000000E-01  7.20000000E-01
  7.20000000E-01  7.20000000E-01  7.20000000E-01  7.20000000E-01  7.20000000E-01
  8.50000000E-01  8.50000000E-01  8.50000000E-01  8.50000000E-01  8.50000000E-01
  8.50000000E-01  8.50000000E-01  8.50000000E-01  8.50000000E-01  8.50000000E-01
  8.50000000E-01  8.50000000E-01  8.50000000E-01  8.50000000E-01  8.50000000E-01
  8.50000000E-01  8.50000000E-01  8.50000000E-01  8.50000000E-01  8.50000000E-01
  8.50000000E-01  8.50000000E-01
%FLAG IPOL                                                                      
%FORMAT(1I8)                                                                    
       0
